version 3
run General-0-20221129-14:33:54-13836
attr configname General
attr datetime 20221129-14:33:54
attr datetimef 20221129-143354
attr experiment General
attr inifile omnetpp.ini
attr iterationvars ""
attr iterationvarsd ""
attr iterationvarsf ""
attr measurement ""
attr network OpportunisticCellularNetwork
attr processid 13836
attr repetition 0
attr replication #0
attr resultdir results
attr runnumber 0
attr seedset 0
config network OpportunisticCellularNetwork
config sim-time-limit 300s
config **.antenna.population 2
config **.antenna.stage 0
config **.antenna.timeslot 1
config num-rngs 3
config **.cellular[*].rng-0 0
config **.source[*].rng-0 1
config **.source[*].rng-1 2

vector 0 OpportunisticCellularNetwork.antenna throughput:vector ETV
attr "" ""
attr recordingmode vector
attr source throughputSignal
0	5	0	0
0	14	1	55
0	29	2	219
0	46	3	299
0	59	4	163
0	70	5	97
0	85	6	265
0	98	7	215
0	109	8	168
0	126	9	209
0	135	10	65
0	144	11	25
0	157	12	214
0	168	13	101
0	181	14	92
0	196	15	228
0	209	16	165
0	222	17	171
0	235	18	126
0	248	19	250
0	261	20	221
0	272	21	91
0	285	22	158
0	304	23	239
0	315	24	36
0	334	25	416
0	347	26	194
0	362	27	185
0	375	28	70
0	388	29	192
0	401	30	102
0	414	31	250
0	429	32	191
0	440	33	58
0	453	34	37
0	466	35	258
0	477	36	115
0	492	37	202
0	503	38	29
0	514	39	23
0	525	40	65
0	538	41	209
0	551	42	94
0	560	43	36
0	575	44	265
0	588	45	88
0	601	46	127
0	614	47	157
0	627	48	136
0	636	49	96
0	649	50	125
0	666	51	256
0	677	52	114
0	690	53	113
0	703	54	166
0	712	55	76
0	727	56	154
0	740	57	163
0	755	58	107
0	766	59	109
0	781	60	225
0	806	61	265
0	819	62	263
0	828	63	67
0	845	64	139
0	858	65	153
0	871	66	80
0	884	67	27
0	897	68	273
0	906	69	27
0	925	70	313
0	938	71	78
0	955	72	77
0	970	73	399
0	981	74	62
0	1004	75	387
0	1015	76	16
0	1026	77	105
0	1041	78	73
0	1050	79	54
0	1065	80	68
0	1080	81	172
0	1091	82	55
0	1104	83	751
0	1119	84	156
0	1130	85	140
0	1143	86	44
0	1162	87	96
0	1181	88	297
0	1196	89	252
0	1205	90	27
0	1218	91	156
0	1231	92	63
0	1242	93	137
0	1255	94	256
0	1268	95	102
0	1279	96	140
0	1290	97	109
0	1301	98	47
0	1314	99	41
0	1329	100	213
0	1342	101	115
0	1351	102	23
0	1362	103	42
0	1383	104	277
0	1398	105	219
0	1407	106	76
0	1428	107	245
0	1439	108	150
0	1452	109	218
0	1461	110	67
0	1474	111	96
0	1485	112	67
0	1498	113	112
0	1513	114	210
0	1526	115	233
0	1541	116	150
0	1552	117	129
0	1563	118	88
0	1576	119	186
0	1597	120	306
0	1606	121	71
0	1619	122	158
0	1634	123	184
0	1647	124	236
0	1658	125	99
0	1671	126	53
0	1686	127	278
0	1695	128	57
0	1704	129	117
0	1719	130	211
0	1738	131	213
0	1753	132	0
0	1766	133	154
0	1779	134	334
0	1798	135	292
0	1807	136	97
0	1816	137	69
0	1835	138	202
0	1844	139	53
0	1859	140	69
0	1872	141	155
0	1887	142	301
0	1900	143	127
0	1915	144	231
0	1930	145	149
0	1941	146	42
0	1954	147	173
0	1969	148	151
0	1980	149	110
0	1993	150	191
0	2004	151	12
0	2021	152	110
0	2038	153	308
0	2049	154	104
0	2064	155	107
0	2079	156	190
0	2092	157	144
0	2107	158	90
0	2122	159	136
0	2137	160	338
0	2146	161	86
0	2163	162	224
0	2178	163	302
0	2187	164	89
0	2198	165	105
0	2215	166	72
0	2224	167	226
0	2237	168	206
0	2248	169	94
0	2257	170	75
0	2276	171	122
0	2287	172	149
0	2300	173	137
0	2311	174	216
0	2324	175	212
0	2337	176	126
0	2346	177	109
0	2357	178	104
0	2368	179	107
0	2381	180	164
0	2394	181	27
0	2407	182	344
0	2422	183	181
0	2431	184	71
0	2442	185	83
0	2455	186	152
0	2468	187	169
0	2485	188	219
0	2496	189	109
0	2509	190	210
0	2522	191	92
0	2539	192	88
0	2554	193	353
0	2565	194	80
0	2576	195	111
0	2587	196	98
0	2602	197	209
0	2617	198	72
0	2632	199	311
0	2647	200	160
0	2660	201	91
0	2671	202	156
0	2682	203	107
0	2695	204	111
0	2704	205	17
0	2723	206	337
0	2736	207	109
0	2751	208	139
0	2762	209	108
0	2773	210	93
0	2784	211	177
0	2795	212	60
0	2808	213	58
0	2819	214	166
0	2834	215	139
0	2845	216	164
0	2864	217	133
0	2873	218	87
0	2884	219	120
0	2893	220	83
0	2910	221	264
0	2921	222	81
0	2932	223	145
0	2941	224	61
0	2952	225	151
0	2961	226	80
0	2978	227	158
0	2989	228	109
0	3000	229	147
0	3013	230	204
0	3024	231	143
0	3035	232	86
0	3048	233	118
0	3061	234	33
0	3076	235	331
0	3089	236	228
0	3098	237	120
0	3117	238	202
0	3126	239	37
0	3137	240	70
0	3148	241	92
0	3165	242	216
0	3178	243	106
0	3187	244	122
0	3202	245	148
0	3215	246	169
0	3224	247	79
0	3235	248	98
0	3252	249	136
0	3269	250	440
0	3282	251	171
0	3295	252	192
0	3308	253	203
0	3323	254	165
0	3342	255	127
0	3355	256	295
0	3364	257	91
0	3377	258	147
0	3390	259	97
0	3401	260	133
0	3422	261	0
0	3433	262	322
0	3446	263	314
0	3455	264	58
0	3468	265	124
0	3481	266	163
0	3496	267	23
0	3509	268	310
0	3522	269	122
0	3539	270	272
0	3550	271	90
0	3565	272	101
0	3580	273	249
0	3597	274	158
0	3608	275	57
0	3619	276	95
0	3634	277	261
0	3647	278	136
0	3658	279	117
0	3667	280	81
0	3680	281	185
0	3693	282	176
0	3708	283	157
0	3717	284	154
0	3728	285	99
0	3743	286	224
0	3754	287	56
0	3771	288	65
0	3784	289	324
0	3799	290	125
0	3814	291	118
0	3825	292	293
0	3838	293	109
0	3855	294	204
0	3876	295	344
0	3885	296	70
0	3898	297	206
0	3913	298	207
0	3924	299	186
0	3939	300	233

