version 3
run General-0-20221201-11:20:19-93530
attr configname General
attr datetime 20221201-11:20:19
attr datetimef 20221201-112019
attr experiment General
attr inifile omnetpp.ini
attr iterationvars ""
attr iterationvarsd ""
attr iterationvarsf ""
attr measurement ""
attr network OpportunisticCellularNetwork
attr processid 93530
attr repetition 0
attr replication #0
attr resultdir results
attr runnumber 0
attr seedset 0
config network OpportunisticCellularNetwork
config sim-time-limit 300s
config **.population 5
config **.antenna.population 5
config **.antenna.stage 0
config **.antenna.timeslot 1
config **.antenna.queueDimension 0
config **.cellular[*].typeCQI false
config **.cellular[*].uniform_r 10
config num-rngs 3
config **.cellular[*].rng-0 0
config **.source[*].rng-0 1
config **.source[*].rng-1 2

vector 0 OpportunisticCellularNetwork.antenna throughput:vector ETV
attr "" ""
attr recordingmode vector
attr source throughputSignal
vector 1 OpportunisticCellularNetwork.antenna responseTime:vector ETV
attr "" ""
attr recordingmode vector
attr source responseTimeSignal
0	11	0	0
0	44	1	430
0	71	2	213
0	100	3	378
0	131	4	498
0	158	5	333
0	195	6	438
0	220	7	461
0	253	8	369
0	290	9	331
0	323	10	237
0	354	11	220
0	385	12	184
0	418	13	355
0	445	14	543
0	478	15	838
0	507	16	181
0	534	17	278
0	565	18	305
0	596	19	350
0	627	20	307
0	656	21	585
0	681	22	309
0	718	23	241
0	753	24	287
0	788	25	168
0	825	26	446
0	850	27	637
0	887	28	517
0	926	29	191
0	963	30	304
0	990	31	499
0	1017	32	527
0	1052	33	159
0	1085	34	866
0	1124	35	295
0	1157	36	361
0	1184	37	266
0	1215	38	128
0	1244	39	448
0	1273	40	477
0	1304	41	463
0	1339	42	465
0	1372	43	364
0	1403	44	268
0	1428	45	340
0	1463	46	451
0	1488	47	323
0	1523	48	325
0	1556	49	272
0	1587	50	222
0	1616	51	566
0	1645	52	275
0	1684	53	298
0	1721	54	377
0	1746	55	224
0	1779	56	636
0	1816	57	406
0	1849	58	394
0	1874	59	628
0	1907	60	274
0	1942	61	459
0	1975	62	187
0	2012	63	438
0	2043	64	587
0	2078	65	323
0	2103	66	455
0	2132	67	161
0	2161	68	365
0	2192	69	221
0	2223	70	413
0	2250	71	393
0	2275	72	526
0	2310	73	436
0	2337	74	234
0	2366	75	108
0	2399	76	389
0	2434	77	339
0	2465	78	103
0	2494	79	522
0	2535	80	839
0	2558	81	284
0	2587	82	559
0	2626	83	441
0	2651	84	157
0	2680	85	499
0	2709	86	185
0	2744	87	313
0	2769	88	364
0	2796	89	244
0	2821	90	498
0	2852	91	196
0	2877	92	292
0	2906	93	403
0	2941	94	113
0	2968	95	546
0	2997	96	126
0	3030	97	487
0	3061	98	55
0	3086	99	583
0	3125	100	602
0	3156	101	453
0	3191	102	54
0	3220	103	79
0	3245	104	499
0	3286	105	688
0	3313	106	278
0	3346	107	349
0	3381	108	475
0	3412	109	883
0	3445	110	363
0	3478	111	262
0	3503	112	251
0	3536	113	614
0	3563	114	377
0	3598	115	291
0	3625	116	143
0	3660	117	222
0	3703	118	460
0	3732	119	490
0	3761	120	298
0	3794	121	366
0	3825	122	357
0	3862	123	325
0	3885	124	199
0	3918	125	369
0	3945	126	348
0	3978	127	141
0	4015	128	261
0	4044	129	129
0	4073	130	124
0	4102	131	69
0	4137	132	640
0	4160	133	238
0	4191	134	170
0	4216	135	113
0	4249	136	293
0	4278	137	116
0	4315	138	328
0	4348	139	190
0	4381	140	134
0	4412	141	93
0	4445	142	48
0	4474	143	381
0	4501	144	150
0	4530	145	357
0	4557	146	189
0	4588	147	237
0	4617	148	165
0	4644	149	69
0	4673	150	135
0	4706	151	416
0	4741	152	200
0	4776	153	123
0	4809	154	113
0	4840	155	347
0	4871	156	235
0	4902	157	299
0	4939	158	452
0	4968	159	321
0	4995	160	89
0	5032	161	140
0	5059	162	18
0	5092	163	204
0	5127	164	224
0	5162	165	211
0	5189	166	182
0	5218	167	94
0	5247	168	745
0	5276	169	45
0	5301	170	53
0	5338	171	0
0	5369	172	421
0	5404	173	169
0	5439	174	124
0	5470	175	321
0	5513	176	253
0	5538	177	54
0	5569	178	906
0	5600	179	129
0	5631	180	340
0	5658	181	99
0	5695	182	582
0	5726	183	194
0	5759	184	150
0	5796	185	56
0	5825	186	477
0	5856	187	158
0	5891	188	395
0	5926	189	116
0	5953	190	243
0	5980	191	89
0	6013	192	169
0	6046	193	564
0	6079	194	366
0	6110	195	243
0	6145	196	226
0	6172	197	173
0	6201	198	154
0	6234	199	214
0	6271	200	119
0	6302	201	663
0	6331	202	342
0	6360	203	221
0	6397	204	228
0	6430	205	265
0	6453	206	174
0	6482	207	129
0	6511	208	337
0	6540	209	314
0	6571	210	64
0	6600	211	371
0	6633	212	141
0	6662	213	26
0	6693	214	468
0	6726	215	247
0	6751	216	118
0	6782	217	191
0	6813	218	411
0	6840	219	283
0	6875	220	248
0	6906	221	136
0	6937	222	172
0	6964	223	176
0	6991	224	88
0	7024	225	180
0	7053	226	216
0	7084	227	111
0	7117	228	262
0	7142	229	78
0	7169	230	434
0	7206	231	170
0	7231	232	341
0	7270	233	90
0	7297	234	186
0	7328	235	542
0	7351	236	131
0	7380	237	411
0	7407	238	214
0	7436	239	102
0	7463	240	96
0	7490	241	309
0	7529	242	154
0	7552	243	124
0	7585	244	186
0	7616	245	517
0	7649	246	308
0	7692	247	382
0	7723	248	314
0	7754	249	95
0	7783	250	83
0	7816	251	103
0	7851	252	511
0	7878	253	223
0	7915	254	348
0	7948	255	114
0	7979	256	249
0	8008	257	67
0	8039	258	321
0	8070	259	96
0	8097	260	272
0	8138	261	71
0	8165	262	224
0	8192	263	75
0	8221	264	193
0	8256	265	92
0	8289	266	746
0	8320	267	294
0	8347	268	155
0	8384	269	244
0	8413	270	104
0	8442	271	260
0	8469	272	249
0	8492	273	138
0	8531	274	123
0	8564	275	123
0	8599	276	453
0	8632	277	145
0	8653	278	267
0	8682	279	85
0	8709	280	72
0	8740	281	0
0	8771	282	510
0	8798	283	387
0	8833	284	188
0	8864	285	210
0	8889	286	149
0	8920	287	248
0	8947	288	191
0	8976	289	113
0	9013	290	306
0	9038	291	173
0	9071	292	121
0	9112	293	335
0	9149	294	90
0	9186	295	599
0	9211	296	172
0	9238	297	336
0	9267	298	208
0	9296	299	236
0	9327	300	129
1	44	1	0.99988561892
1	44	1	0.871761171148
1	44	1	0.569428603398
1	44	1	0.422672710847
1	44	1	0.186583734583
1	44	1	0.000323523302
1	44	1	0.582978001563
1	44	1	0.002815191867
1	44	1	0.279675510712
1	44	1	0.187336915173
1	71	2	0.657254466787
1	71	2	0.118437734898
1	71	2	0.330577482935
1	71	2	0.017303969944
1	71	2	1.0674426388
1	71	2	0.679531898583
1	100	3	1.583937486168
1	100	3	0.737626567949
1	100	3	0.508049347904
1	100	3	0.480661751936
1	100	3	0.433218234218
1	100	3	0.492755807238
1	100	3	0.743992825971
1	131	4	0.519256211817
1	131	4	0.321154728532
1	131	4	2.790756189032
1	131	4	2.393988720375
1	131	4	1.974794201321
1	131	4	1.770341952332
1	131	4	1.326889058576
1	131	4	0.90958425426
1	131	4	0.350894426928
1	131	4	0.810194244376
1	131	4	0.669807307423
1	158	5	1.958341900027
1	158	5	1.501137090847
1	158	5	0.722747855354
1	158	5	0.409323670668
1	158	5	0.352893156698
1	158	5	1.865875388962
1	158	5	1.435176818865
1	158	5	0.634432252497
1	195	6	1.73067951249
1	195	6	0.927922009258
1	195	6	0.842877802207
1	195	6	0.013274437516
1	195	6	0.487872911384
1	195	6	0.318042488768
1	195	6	0.258799291681
1	195	6	0.942109635566
1	195	6	0.112962724874
1	195	6	0.532934524584
1	195	6	0.493879740359
1	195	6	0.220829762984
1	220	7	0.341620345834
1	220	7	2.634923916078
1	220	7	2.542123105843
1	220	7	2.02397055761
1	220	7	1.129363893765
1	220	7	1.031017057366
1	220	7	0.609909436667
1	220	7	0.519897208084
1	220	7	0.380656787427
1	220	7	0.183105893899
1	220	7	0.550301721785
1	220	7	0.13851384283
1	253	8	0.893476250116
1	253	8	0.206975325477
1	253	8	0.652019904695
1	253	8	0.239481059603
1	253	8	0.822998208925
1	253	8	0.64974323311
1	253	8	0.631454952994
1	253	8	0.597283642973
1	290	9	0.988372535445
1	290	9	0.240206882358
1	290	9	0.136980870273
1	290	9	0.847139330582
1	290	9	0.548644032098
1	290	9	0.102509531427
1	290	9	0.006337272471
1	290	9	0.218114238
1	290	9	0.144750063774
1	323	10	0.696856539232
1	323	10	0.409081196181
1	323	10	0.667742345482
1	323	10	0.548251871718
1	323	10	0.023452488705
1	354	11	2.615451076302
1	354	11	2.335007084069
1	354	11	2.112882535673
1	354	11	1.204287031201
1	354	11	0.992658920122
1	354	11	0.727112262511
1	354	11	0.142723138678
1	354	11	0.11300410889
1	385	12	1.730245665648
1	385	12	1.238672505367
1	385	12	0.624734187034
1	385	12	0.522399756593
1	385	12	0.156468450091
1	418	13	3.712723129198
1	418	13	2.809352957878
1	418	13	2.510422847002
1	418	13	2.457060302609
1	418	13	1.88294269587
1	418	13	1.183184334311
1	418	13	0.488784176299
1	418	13	0.443438451273
1	418	13	0.663408856605
1	418	13	0.613455397774
1	445	14	1.988951263718
1	445	14	1.448350755267
1	445	14	1.308384635022
1	445	14	0.515981055798
1	445	14	2.995994566475
1	445	14	2.406689029188
1	445	14	1.992633043091
1	445	14	1.578453776893
1	445	14	1.042557368289
1	445	14	0.097962609726
1	445	14	0.847970290574
1	445	14	0.928549343722
1	445	14	0.898747983623
1	445	14	0.312192944811
1	445	14	0.17471824214
1	478	15	7.986731918762
1	478	15	7.844611785841
1	478	15	7.061297313311
1	478	15	6.400661588647
1	478	15	5.611382256495
1	478	15	5.481353687355
1	478	15	5.461986728944
1	478	15	5.378363723634
1	478	15	4.461502389284
1	478	15	3.895590360742
1	478	15	3.634611379355
1	478	15	3.403595957905
1	478	15	2.453657824313
1	478	15	1.789863175479
1	478	15	0.88646126259
1	478	15	0.488784428685
1	478	15	0.964844818924
1	478	15	0.157453528371
1	507	16	1.958686266328
1	507	16	1.581101921155
1	507	16	1.415747727268
1	507	16	0.488239148632
1	507	16	0.836485550505
1	507	16	0.08567344793
1	507	16	0.809687669155
1	507	16	0.083689681719
1	534	17	2.726738059196
1	534	17	2.188313364518
1	534	17	1.827052341077
1	534	17	1.189215862426
1	534	17	0.565543656238
1	534	17	0.437924052122
1	534	17	0.167996158357
1	534	17	0.332747244508
1	565	18	0.802310599015
1	565	18	1.604933057214
1	565	18	1.256034718594
1	565	18	0.503246368375
1	565	18	0.005137298955
1	565	18	0.739904968067
1	565	18	0.728235773741
1	565	18	0.064794275443
1	596	19	1.436861029127
1	596	19	0.815165309235
1	596	19	0.236775701865
1	596	19	0.837470549858
1	596	19	0.482160186629
1	596	19	0.950048305559
1	596	19	0.885980978607
1	596	19	0.436068845446
1	596	19	0.027932041324
1	596	19	0.055648039095
1	627	20	0.540323238821
1	627	20	0.23896273831
1	627	20	0.086032915861
1	627	20	0.292727971915
1	627	20	0.289857647149
1	627	20	0.999748725909
1	627	20	0.228153730509
1	627	20	0.124552524881
1	656	21	6.975192864195
1	656	21	6.083056995648
1	656	21	5.512048433538
1	656	21	5.385733552746
1	656	21	4.695528963118
1	656	21	4.341589871331
1	656	21	3.985058154448
1	656	21	3.103716325483
1	656	21	3.029924314472
1	656	21	2.242972840558
1	656	21	1.863169550433
1	656	21	1.289490062281
1	656	21	0.672345145842
1	656	21	0.517118503805
1	656	21	0.54591859295
1	656	21	0.075277787866
1	681	22	1.901508828391
1	681	22	1.892500832908
1	681	22	1.006558737716
1	681	22	0.539166052359
1	681	22	0.963302623484
1	681	22	0.947481382642
1	681	22	0.678480332954
1	681	22	0.608583358349
1	681	22	0.4519176709
1	718	23	0.900592732243
1	718	23	0.830511237494
1	718	23	0.358036196091
1	718	23	0.292036022524
1	718	23	0.061673218383
1	718	23	0.848269133129
1	718	23	0.675928622483
1	718	23	0.749043098655
1	718	23	0.006278271558
1	753	24	0.743333157616
1	753	24	1.776890768902
1	753	24	1.639755018986
1	753	24	1.447798942913
1	753	24	0.750980780226
1	753	24	0.542412471956
1	753	24	0.493108226218
1	753	24	0.49803073402
1	788	25	0.974246350814
1	788	25	0.945939861702
1	788	25	0.43612958351
1	788	25	0.786505977162
1	825	26	1.820308616849
1	825	26	1.718173384432
1	825	26	1.179342318325
1	825	26	0.901023475685
1	825	26	0.621839795028
1	825	26	0.926478026672
1	825	26	0.802304709567
1	825	26	0.710748269227
1	825	26	0.124989001318
1	825	26	0.10634171125
1	825	26	0.594098690197
1	825	26	0.176172151927
1	850	27	6.558974809945
1	850	27	6.201705049491
1	850	27	5.437112479005
1	850	27	4.439789627446
1	850	27	3.975478119915
1	850	27	3.221601926721
1	850	27	3.04932356975
1	850	27	3.023112582508
1	850	27	2.915747274179
1	850	27	2.66953620431
1	850	27	2.437777740881
1	850	27	1.470109815244
1	850	27	0.909079595469
1	850	27	0.619319593767
1	850	27	0.652244049356
1	850	27	0.305709038167
1	850	27	0.808328911428
1	850	27	0.575354638043
1	887	28	4.30621016654
1	887	28	4.181939204222
1	887	28	4.162059072171
1	887	28	3.765745783922
1	887	28	3.477027951273
1	887	28	2.924205977934
1	887	28	2.690583450253
1	887	28	2.120516792404
1	887	28	1.307521820765
1	887	28	0.919661175225
1	887	28	0.172539535675
1	887	28	0.112621840786
1	887	28	0.878799214498
1	887	28	0.450986579298
1	887	28	0.022604169794
1	887	28	0.962406547739
1	887	28	0.098864695056
1	926	29	0.9912783897
1	926	29	0.074868516529
1	926	29	0.002894233445
1	926	29	0.97805229505
1	926	29	0.87055817177
1	926	29	0.644848833098
1	963	30	2.93485244736
1	963	30	2.182979478034
1	963	30	1.821075028506
1	963	30	1.204746085684
1	963	30	1.168746649985
1	963	30	0.514422878389
1	963	30	0.440453880465
1	963	30	0.188128133769
1	990	31	1.035617903805
1	990	31	0.664484008447
1	990	31	0.614465923979
1	990	31	1.931859848793
1	990	31	1.571045093942
1	990	31	1.367751852847
1	990	31	1.215614695573
1	990	31	1.053996165987
1	990	31	0.472637236357
1	990	31	0.232789472915
1	1017	32	1.9926986536
1	1017	32	1.022678664186
1	1017	32	0.818320540012
1	1017	32	0.934109230065
1	1017	32	0.314153518067
1	1017	32	0.295577319577
1	1017	32	3.161674369125
1	1017	32	3.149118387139
1	1017	32	3.019348774337
1	1017	32	2.724989302455
1	1017	32	2.156888839787
1	1017	32	1.218177141853
1	1017	32	0.724407428641
1	1017	32	0.567616034065
1	1017	32	0.767637124517
1	1052	33	0.87461591279
1	1052	33	0.268286453326
1	1052	33	0.644456754211
1	1052	33	0.075605316559
1	1052	33	0.808267234823
1	1052	33	0.045694097176
1	1085	34	6.812214402482
1	1085	34	6.255974165164
1	1085	34	6.119518938009
1	1085	34	5.966180454009
1	1085	34	5.184221991339
1	1085	34	4.624505012064
1	1085	34	4.349859858864
1	1085	34	3.606034001569
1	1085	34	2.86507844436
1	1085	34	1.88332180935
1	1085	34	1.396976702847
1	1085	34	0.941694232868
1	1085	34	0.795661489246
1	1085	34	0.286872750613
1	1085	34	0.950924047966
1	1085	34	0.37117882422
1	1085	34	0.54377887026
1	1085	34	0.32812859491
1	1124	35	0.625844393622
1	1124	35	0.559509560929
1	1124	35	1.936358033445
1	1124	35	1.556216857627
1	1124	35	1.005268639185
1	1124	35	0.740349080878
1	1124	35	0.608081806217
1	1124	35	0.395348111399
1	1124	35	0.185174099168
1	1124	35	0.118637616744
1	1124	35	0.617639857343
1	1157	36	0.762173934838
1	1157	36	1.411684892145
1	1157	36	1.337426458024
1	1157	36	1.242007213649
1	1157	36	1.079801702411
1	1157	36	0.819486600352
1	1157	36	0.626052319543
1	1157	36	0.049468101706
1	1157	36	0.853398244827
1	1157	36	0.048643679357
1	1184	37	0.831161006352
1	1184	37	0.506643505998
1	1184	37	1.929792052365
1	1184	37	1.834484240736
1	1184	37	1.69122123392
1	1184	37	1.051760352214
1	1184	37	0.212115140862
1	1184	37	0.124660133855
1	1184	37	0.425351564771
1	1215	38	0.387848671531
1	1215	38	0.15348658525
1	1215	38	0.771577540318
1	1244	39	1.902614939956
1	1244	39	1.737208827164
1	1244	39	1.050150528315
1	1244	39	0.433372173689
1	1244	39	1.439937111453
1	1244	39	1.425985540959
1	1244	39	0.999174697089
1	1244	39	0.050158375871
1	1244	39	0.42492918857
1	1273	40	0.868275998864
1	1273	40	7.989339642692
1	1273	40	7.919317497871
1	1273	40	7.879633995936
1	1273	40	7.065757634117
1	1273	40	6.077141478191
1	1273	40	5.614988963351
1	1273	40	5.2449047619
1	1273	40	4.492149203549
1	1273	40	3.967478896956
1	1273	40	3.704182122367
1	1273	40	3.638221033615
1	1273	40	2.910209393361
1	1273	40	2.002393534872
1	1273	40	1.246058144606
1	1273	40	1.042547826887
1	1273	40	1.034545116125
1	1273	40	0.392978909424
1	1273	40	0.134552020344
1	1304	41	0.530241530852
1	1304	41	0.135365916879
1	1304	41	1.508172065716
1	1304	41	1.118164347715
1	1304	41	1.094062722518
1	1304	41	0.544514803213
1	1304	41	0.176137949337
1	1304	41	2.839605472981
1	1304	41	2.441994196036
1	1304	41	1.491818077163
1	1304	41	1.197306530549
1	1304	41	1.030354938003
1	1304	41	0.578353331423
1	1304	41	0.90698823938
1	1304	41	0.09864949528
1	1304	41	0.063801771029
1	1339	42	0.65961989574
1	1339	42	0.153957725967
1	1339	42	0.172103382644
1	1339	42	0.889846105361
1	1339	42	0.763516584877
1	1339	42	0.684996615397
1	1339	42	0.549917459954
1	1339	42	0.09037217917
1	1339	42	0.566930961094
1	1339	42	0.554218294795
1	1339	42	0.532693486658
1	1339	42	1.941925287718
1	1339	42	1.015743860748
1	1339	42	0.661166626966
1	1372	43	0.210786125387
1	1372	43	0.32684225682
1	1372	43	0.756186958636
1	1372	43	0.579990698258
1	1372	43	0.247927125544
1	1372	43	0.584723275851
1	1372	43	0.479332025626
1	1372	43	0.348335181593
1	1372	43	0.967981428845
1	1372	43	0.952962449059
1	1372	43	0.480879023444
1	1403	44	0.86604947061
1	1403	44	0.517351566114
1	1403	44	0.713549788809
1	1403	44	0.358965102351
1	1403	44	0.117475965992
1	1428	45	0.621071317465
1	1428	45	0.161191054153
1	1428	45	1.977803113643
1	1428	45	1.696326348005
1	1428	45	1.114312168682
1	1428	45	1.090428075759
1	1428	45	0.18503576378
1	1428	45	0.272741520778
1	1428	45	1.462645320685
1	1428	45	0.583813331087
1	1428	45	0.15384543454
1	1428	45	0.925941983934
1	1463	46	0.362587465903
1	1463	46	0.347054192096
1	1463	46	0.838747252483
1	1463	46	0.71222109418
1	1463	46	0.960215179014
1	1463	46	0.67449632473
1	1463	46	0.075386016394
1	1463	46	0.726394704544
1	1463	46	0.23614118225
1	1463	46	0.017747947248
1	1488	47	0.769047747366
1	1488	47	1.576777801613
1	1488	47	1.263166971269
1	1488	47	0.669685564234
1	1488	47	0.354440758002
1	1488	47	0.762177787028
1	1488	47	0.394223067675
1	1488	47	0.641709662738
1	1488	47	0.406441336029
1	1523	48	0.898375987546
1	1523	48	0.714365782221
1	1523	48	0.961687222589
1	1523	48	0.417789985659
1	1523	48	0.40191700589
1	1523	48	0.352205990815
1	1523	48	0.579123010392
1	1556	49	1.776583541182
1	1556	49	1.585323271106
1	1556	49	0.996483335036
1	1556	49	0.597068043656
1	1556	49	0.926436548126
1	1556	49	0.926034525042
1	1556	49	0.058517070259
1	1556	49	0.6731371535
1	1587	50	0.810905806718
1	1587	50	0.084733527624
1	1587	50	0.696378009628
1	1587	50	0.486885128777
1	1587	50	0.069502335276
1	1616	51	3.513552631481
1	1616	51	3.465415836076
1	1616	51	3.411506561559
1	1616	51	2.991312880997
1	1616	51	2.072711102894
1	1616	51	1.81800835556
1	1616	51	1.660252359227
1	1616	51	1.085540851342
1	1616	51	0.737850834845
1	1616	51	0.799157250444
1	1616	51	0.10164775467
1	1616	51	0.982059997039
1	1616	51	0.395226659484
1	1616	51	0.358756957341
1	1645	52	0.987829070768
1	1645	52	0.087300523647
1	1645	52	1.369618305007
1	1645	52	0.614536122188
1	1645	52	0.60987280938
1	1645	52	0.287191808691
1	1684	53	1.569357116006
1	1684	53	1.305153811814
1	1684	53	0.837776507016
1	1684	53	0.597558874402
1	1684	53	0.28017492336
1	1684	53	0.112344124585
1	1684	53	0.836317873794
1	1684	53	0.425506520785
1	1721	54	0.691269367931
1	1721	54	0.417369042987
1	1721	54	0.407369315622
1	1721	54	0.064023076089
1	1721	54	2.403590505714
1	1721	54	1.732801714683
1	1721	54	1.709632984366
1	1721	54	1.177964877806
1	1721	54	0.204162796497
1	1746	55	0.160181125391
1	1746	55	1.803587152158
1	1746	55	1.605017263909
1	1746	55	1.178316252074
1	1746	55	1.14636003296
1	1746	55	0.266361746007
1	1779	56	0.861380901418
1	1779	56	0.333666256394
1	1779	56	1.406523989517
1	1779	56	0.743804174712
1	1779	56	3.727484329601
1	1779	56	3.326004744039
1	1779	56	2.89575746725
1	1779	56	2.217956578822
1	1779	56	1.998090280683
1	1779	56	1.215998261
1	1779	56	0.945789995833
1	1779	56	0.090892051111
1	1779	56	0.046619753816
1	1779	56	0.748767758721
1	1816	57	0.888884189307
1	1816	57	0.118000274758
1	1816	57	0.04979093047
1	1816	57	0.761177735634
1	1816	57	0.741858984109
1	1816	57	0.173000988083
1	1816	57	0.94164309069
1	1816	57	0.497835107385
1	1816	57	0.032125231582
1	1816	57	0.527608125002
1	1816	57	0.460576074195
1	1849	58	0.648804560534
1	1849	58	0.410593645412
1	1849	58	0.12937675393
1	1849	58	0.056253442539
1	1849	58	0.671866753839
1	1849	58	0.592240671629
1	1849	58	0.326443088711
1	1849	58	0.536710374521
1	1849	58	0.492292432578
1	1849	58	0.310679576358
1	1874	59	0.514584395573
1	1874	59	10.967091829515
1	1874	59	10.390187865588
1	1874	59	10.013607548782
1	1874	59	9.931352640502
1	1874	59	9.326636539772
1	1874	59	8.698560337536
1	1874	59	8.623836444691
1	1874	59	7.765522606671
1	1874	59	6.901043173392
1	1874	59	6.518940422685
1	1874	59	6.388745704667
1	1874	59	5.827286745888
1	1874	59	5.142598837848
1	1874	59	4.207726640162
1	1874	59	4.191263875692
1	1874	59	3.938897172456
1	1874	59	3.398177633529
1	1874	59	3.213063330857
1	1874	59	3.129516984105
1	1874	59	2.396374452628
1	1874	59	2.053685544526
1	1874	59	1.280835113723
1	1874	59	0.405873462327
1	1874	59	0.244902026609
1	1874	59	0.367840194607
1	1907	60	1.60942355497
1	1907	60	0.949091658464
1	1907	60	0.603919608521
1	1907	60	0.945089984224
1	1907	60	0.469937246763
1	1907	60	0.157667408935
1	1907	60	1.445589940062
1	1907	60	1.258211360544
1	1907	60	0.791331338462
1	1942	61	0.944309055804
1	1942	61	0.477223740657
1	1942	61	0.03639541869
1	1942	61	0.027482738718
1	1942	61	0.617362847324
1	1942	61	0.398679943993
1	1942	61	0.205717210663
1	1942	61	1.341022763869
1	1942	61	1.201742714506
1	1942	61	0.285437162735
1	1942	61	0.765140199803
1	1942	61	0.508021902062
1	1942	61	0.397130599247
1	1975	62	0.916852416239
1	1975	62	0.411388485461
1	1975	62	0.253808857176
1	1975	62	0.872432905254
1	1975	62	0.624399346071
1	1975	62	0.568940024594
1	1975	62	0.153091301913
1	1975	62	0.785852992211
1	2012	63	1.819288299651
1	2012	63	1.14614102058
1	2012	63	0.826917228521
1	2012	63	0.036543706664
1	2012	63	0.648705621019
1	2012	63	0.431206402138
1	2012	63	0.278534752784
1	2012	63	0.934181113963
1	2012	63	0.832213855118
1	2012	63	0.316356843573
1	2012	63	0.116147848315
1	2012	63	0.919425164121
1	2012	63	0.028908045734
1	2043	64	4.845553626537
1	2043	64	4.620513672938
1	2043	64	4.028001809257
1	2043	64	3.118366283129
1	2043	64	2.389780611496
1	2043	64	1.773095542563
1	2043	64	1.295954557134
1	2043	64	0.674148329532
1	2043	64	0.529602790483
1	2043	64	0.384910883846
1	2043	64	0.162861744406
1	2043	64	0.374770698375
1	2043	64	0.32647068636
1	2043	64	0.572137728337
1	2078	65	1.880326873855
1	2078	65	1.369965880876
1	2078	65	0.850614060647
1	2078	65	0.135284478077
1	2078	65	0.377565714296
1	2078	65	0.296781984622
1	2078	65	1.598094685936
1	2078	65	0.610030008249
1	2078	65	0.285667545863
1	2103	66	0.596843885257
1	2103	66	1.427406686595
1	2103	66	0.554484307304
1	2103	66	0.354212901559
1	2103	66	1.820609908555
1	2103	66	1.798279482177
1	2103	66	1.487951644002
1	2103	66	1.095011376547
1	2103	66	1.093998096654
1	2103	66	0.227389825512
1	2132	67	0.647037894697
1	2132	67	0.729101311885
1	2132	67	0.005736560099
1	2132	67	1.45207237522
1	2132	67	0.625665381782
1	2161	68	0.866413380949
1	2161	68	0.831842159152
1	2161	68	0.061603429958
1	2161	68	2.93354623439
1	2161	68	2.308915754317
1	2161	68	1.454800309616
1	2161	68	0.844559493012
1	2161	68	0.259200279837
1	2161	68	0.206121297557
1	2192	69	0.747848048571
1	2192	69	0.115544732891
1	2192	69	0.527471680197
1	2192	69	0.946422904966
1	2192	69	0.689353606667
1	2223	70	0.730883002983
1	2223	70	0.284783497456
1	2223	70	0.910431364787
1	2223	70	0.127681948248
1	2223	70	2.943520906148
1	2223	70	2.239185878308
1	2223	70	1.935307450592
1	2223	70	1.708845836808
1	2223	70	1.363548374734
1	2223	70	0.850886672269
1	2223	70	0.80522550526
1	2250	71	4.905937993437
1	2250	71	4.807194590572
1	2250	71	4.759876361586
1	2250	71	4.108572028581
1	2250	71	3.702267727585
1	2250	71	2.732703220801
1	2250	71	2.060368661306
1	2250	71	1.445103728215
1	2250	71	0.477091074691
1	2250	71	0.573649794798
1	2275	72	0.511044511109
1	2275	72	2.66939850291
1	2275	72	2.369150165466
1	2275	72	2.226144332669
1	2275	72	1.324835896722
1	2275	72	0.330922877879
1	2275	72	1.814753724261
1	2275	72	1.403399316593
1	2275	72	0.766794913913
1	2275	72	0.220724108162
1	2275	72	0.085296205244
1	2275	72	0.598909429976
1	2310	73	0.521845637352
1	2310	73	0.93970946479
1	2310	73	0.913490897281
1	2310	73	0.379556563919
1	2310	73	0.349156871209
1	2310	73	0.03501034575
1	2310	73	0.729591034585
1	2310	73	0.152311587938
1	2310	73	0.984618580903
1	2310	73	0.097310527929
1	2337	74	0.371172090995
1	2337	74	0.785768490749
1	2337	74	0.093090770299
1	2337	74	0.172664092858
1	2337	74	0.604347340294
1	2337	74	0.12428441364
1	2366	75	0.251680708256
1	2366	75	0.935647617324
1	2366	75	0.380120080194
1	2366	75	0.176213854222
1	2399	76	1.685089720185
1	2399	76	1.103512310428
1	2399	76	0.878121834486
1	2399	76	0.928480952742
1	2399	76	0.281727038553
1	2399	76	1.680229949768
1	2399	76	1.410348658453
1	2399	76	0.923605945896
1	2399	76	0.173433534339
1	2434	77	0.956988255498
1	2434	77	0.158384011597
1	2434	77	0.773210798619
1	2434	77	0.475879414003
1	2434	77	0.448273399375
1	2434	77	1.975834808544
1	2434	77	1.71366172959
1	2434	77	1.256686397362
1	2434	77	0.790878694038
1	2434	77	0.488007373176
1	2465	78	0.854840944517
1	2465	78	0.067259937288
1	2465	78	0.999000072246
1	2465	78	0.496003539767
1	2494	79	0.329128969224
1	2494	79	0.196699335236
1	2494	79	1.992694371384
1	2494	79	1.242836059774
1	2494	79	0.283401742582
1	2494	79	2.96147337207
1	2494	79	2.236493251057
1	2494	79	1.392652819402
1	2494	79	0.851701010953
1	2494	79	0.593898117778
1	2494	79	0.561575049072
1	2494	79	0.592401672853
1	2494	79	0.028192927595
1	2535	80	9.925223193367
1	2535	80	9.38366381638
1	2535	80	9.180605972654
1	2535	80	8.187779405157
1	2535	80	7.729628526841
1	2535	80	7.56923334487
1	2535	80	6.823596157369
1	2535	80	6.018360318153
1	2535	80	5.576456039914
1	2535	80	4.586704331453
1	2535	80	4.386229570259
1	2535	80	4.329300136308
1	2535	80	3.449447031601
1	2535	80	3.245772703088
1	2535	80	3.157156443925
1	2535	80	2.776140319187
1	2535	80	2.264998845061
1	2535	80	2.045474756047
1	2535	80	1.24151385995
1	2535	80	0.8694261862
1	2535	80	0.363699965415
1	2535	80	0.002425253162
1	2558	81	1.818400260298
1	2558	81	1.123993407939
1	2558	81	0.321030171126
1	2558	81	1.852187796266
1	2558	81	1.585115780591
1	2558	81	1.156496950195
1	2558	81	0.522710185501
1	2558	81	0.305624757431
1	2587	82	2.24915038887
1	2587	82	2.140131625808
1	2587	82	2.094320107014
1	2587	82	1.706492318069
1	2587	82	1.247969139829
1	2587	82	0.40211765491
1	2587	82	2.945337465964
1	2587	82	2.723904730286
1	2587	82	2.642430762061
1	2587	82	2.185452854726
1	2587	82	1.369445349322
1	2587	82	0.633713231654
1	2587	82	0.395987809173
1	2587	82	0.756498805716
1	2587	82	0.327730031221
1	2587	82	0.316449713896
1	2587	82	0.173026665349
1	2626	83	0.809703366132
1	2626	83	0.206208718707
1	2626	83	0.7694916504
1	2626	83	0.702766657111
1	2626	83	0.24418284395
1	2626	83	0.130840918983
1	2626	83	1.978576055266
1	2626	83	1.701170589546
1	2626	83	0.883402200653
1	2626	83	0.805015300638
1	2626	83	0.78668266186
1	2626	83	0.106663515563
1	2651	84	0.845191247993
1	2651	84	0.458055820548
1	2651	84	0.119720701831
1	2651	84	0.375979440056
1	2651	84	1.437672970353
1	2651	84	0.86415199144
1	2651	84	0.469301513165
1	2680	85	2.745801795503
1	2680	85	2.161842007186
1	2680	85	2.134058665015
1	2680	85	1.175358761098
1	2680	85	0.193216399519
1	2680	85	0.66963395663
1	2680	85	0.62187581486
1	2680	85	0.147871888009
1	2680	85	0.923574620394
1	2680	85	0.338221634973
1	2680	85	0.251965090634
1	2709	86	0.790823883606
1	2709	86	0.368371699936
1	2709	86	0.99870194402
1	2709	86	0.094015789455
1	2709	86	0.448801755907
1	2709	86	0.411740712591
1	2744	87	2.722363018665
1	2744	87	2.244290512289
1	2744	87	1.252839943395
1	2744	87	1.215412003455
1	2744	87	1.089770626744
1	2744	87	0.471257058207
1	2744	87	0.365045772867
1	2744	87	0.594497355865
1	2744	87	0.055870071286
1	2744	87	0.796459087865
1	2744	87	0.108342986783
1	2769	88	1.374926429246
1	2769	88	1.371908467733
1	2769	88	1.091223676228
1	2769	88	0.201057372154
1	2769	88	0.123278498422
1	2769	88	0.413851988271
1	2769	88	1.758050956999
1	2769	88	1.74768669857
1	2769	88	1.138873609717
1	2769	88	0.362658983565
1	2769	88	0.259903131518
1	2796	89	0.544195197755
1	2796	89	0.903252681486
1	2796	89	0.06544881384
1	2796	89	0.965548432903
1	2796	89	0.777916763216
1	2796	89	0.155420864705
1	2796	89	0.44738466549
1	2821	90	0.165465688106
1	2821	90	0.848189803771
1	2821	90	0.102868292014
1	2821	90	0.541575167331
1	2821	90	2.20294095296
1	2821	90	2.057382720286
1	2821	90	1.442078488409
1	2821	90	0.887019135985
1	2821	90	0.175896682539
1	2821	90	0.204259172549
1	2852	91	0.266603481485
1	2852	91	0.809774752942
1	2852	91	0.559924074917
1	2852	91	0.38649390708
1	2852	91	0.701994562521
1	2852	91	0.062935588415
1	2852	91	0.165696569957
1	2877	92	1.939709860134
1	2877	92	1.365977954353
1	2877	92	1.246520906222
1	2877	92	0.433910324006
1	2877	92	0.916143218986
1	2877	92	0.068353238515
1	2877	92	0.377228733147
1	2906	93	1.29118630407
1	2906	93	0.980599051114
1	2906	93	0.791650074296
1	2906	93	0.525011372514
1	2906	93	0.023375143059
1	2906	93	1.896794297735
1	2906	93	1.632496819601
1	2906	93	0.984772964849
1	2906	93	0.002355520383
1	2941	94	0.091582684547
1	2941	94	0.060633680553
1	2941	94	0.25105981016
1	2941	94	0.988945047144
1	2941	94	0.864665006759
1	2968	95	2.786770449019
1	2968	95	1.987109255976
1	2968	95	1.620552613166
1	2968	95	1.575716024264
1	2968	95	1.063423326704
1	2968	95	0.757851712638
1	2968	95	0.943647145067
1	2968	95	0.459325589944
1	2968	95	0.312173332082
1	2968	95	0.343755017503
1	2968	95	0.31646779273
1	2968	95	0.172524946512
1	2997	96	0.790122081287
1	2997	96	0.274905420834
1	2997	96	0.846535139487
1	2997	96	0.866832761792
1	2997	96	0.007343442412
1	3030	97	0.584677547443
1	3030	97	0.251238283229
1	3030	97	4.614821149735
1	3030	97	4.081167801749
1	3030	97	3.766700796317
1	3030	97	3.333108466118
1	3030	97	3.104503656737
1	3030	97	2.262017305707
1	3030	97	1.956219065701
1	3030	97	1.0692986059
1	3030	97	0.616445106221
1	3030	97	0.326348250499
1	3030	97	0.12186520407
1	3061	98	0.939794070779
1	3061	98	0.100956219474
1	3086	99	1.604597605765
1	3086	99	1.081801572349
1	3086	99	1.022352496628
1	3086	99	0.090491383337
1	3086	99	3.809272002435
1	3086	99	3.250755455118
1	3086	99	2.983667904517
1	3086	99	2.355358863488
1	3086	99	1.778602926532
1	3086	99	0.862197075511
1	3086	99	2.959693215092
1	3086	99	2.461709907747
1	3086	99	2.452361329694
1	3086	99	1.557664721043
1	3086	99	1.131189933282
1	3086	99	0.182212917369
1	3125	100	1.72966245468
1	3125	100	1.155318232246
1	3125	100	0.776471339159
1	3125	100	0.648664336179
1	3125	100	0.241961462416
1	3125	100	0.067195586387
1	3125	100	3.126999972388
1	3125	100	2.307395314798
1	3125	100	2.145457415376
1	3125	100	1.898061380023
1	3125	100	1.011561896186
1	3125	100	0.370656635612
1	3125	100	0.056280014105
1	3156	101	1.925328696386
1	3156	101	1.697428404127
1	3156	101	1.609946192016