version 3
run General-0-20221210-00:52:01-2832
attr configname General
attr datetime 20221210-00:52:01
attr datetimef 20221210-005201
attr experiment General
attr inifile omnetpp.ini
attr iterationvars ""
attr iterationvarsd ""
attr iterationvarsf ""
attr measurement ""
attr network OpportunisticCellularNetwork
attr processid 2832
attr repetition 0
attr replication #0
attr resultdir results
attr runnumber 0
attr seedset 0
config network OpportunisticCellularNetwork
config sim-time-limit 10s
config **.population 1
config **.antenna.stage 0
config **.antenna.timeslot "1 ms"
config **.antenna.queueDimension 0
config **.cellular[*].TEST 1
config **.cellular[*].TEST_CQI 15
config **.source[*].TEST 1
config **.source[*].TEST_PERIOD "0.25 ms"
config **.source[*].TEST_SIZE 93
config num-rngs 1
config **.antenna.rng-0 0

vector 0 OpportunisticCellularNetwork.antenna throughput:vector ETV
attr "" ""
attr recordingmode vector
attr source throughputSignal
0	11	0.001	372
vector 1 OpportunisticCellularNetwork.cellular[0] userResponseTime:vector ETV
attr "" ""
attr recordingmode vector
attr source userResponseTimeSignal
vector 2 OpportunisticCellularNetwork.cellular[0] userThroughput:vector ETV
attr "" ""
attr recordingmode vector
attr source userThroughputSignal
1	12	0.001	0.00075
1	12	0.001	0.0005
1	12	0.001	0.00025
1	12	0.001	0
1	24	0.002	0.00075
1	24	0.002	0.0005
1	24	0.002	0.00025
1	24	0.002	0
1	36	0.003	0.00075
1	36	0.003	0.0005
1	36	0.003	0.00025
1	36	0.003	0
1	48	0.004	0.00075
1	48	0.004	0.0005
1	48	0.004	0.00025
1	48	0.004	0
1	60	0.005	0.00075
1	60	0.005	0.0005
1	60	0.005	0.00025
1	60	0.005	0
1	72	0.006	0.00075
1	72	0.006	0.0005
1	72	0.006	0.00025
1	72	0.006	0
1	84	0.007	0.00075
1	84	0.007	0.0005
1	84	0.007	0.00025
1	84	0.007	0
1	96	0.008	0.00075
1	96	0.008	0.0005
1	96	0.008	0.00025
1	96	0.008	0
1	108	0.009	0.00075
1	108	0.009	0.0005
1	108	0.009	0.00025
1	108	0.009	0
1	120	0.01	0.00075
1	120	0.01	0.0005
1	120	0.01	0.00025
1	120	0.01	0
1	132	0.011	0.00075
1	132	0.011	0.0005
1	132	0.011	0.00025
1	132	0.011	0
1	144	0.012	0.00075
1	144	0.012	0.0005
1	144	0.012	0.00025
1	144	0.012	0
1	156	0.013	0.00075
1	156	0.013	0.0005
1	156	0.013	0.00025
1	156	0.013	0
1	168	0.014	0.00075
1	168	0.014	0.0005
1	168	0.014	0.00025
1	168	0.014	0
1	180	0.015	0.00075
1	180	0.015	0.0005
1	180	0.015	0.00025
1	180	0.015	0
1	192	0.016	0.00075
1	192	0.016	0.0005
1	192	0.016	0.00025
1	192	0.016	0
1	204	0.017	0.00075
1	204	0.017	0.0005
1	204	0.017	0.00025
1	204	0.017	0
1	216	0.018	0.00075
1	216	0.018	0.0005
1	216	0.018	0.00025
1	216	0.018	0
1	228	0.019	0.00075
1	228	0.019	0.0005
1	228	0.019	0.00025
1	228	0.019	0
1	240	0.02	0.00075
1	240	0.02	0.0005
1	240	0.02	0.00025
1	240	0.02	0
1	252	0.021	0.00075
1	252	0.021	0.0005
1	252	0.021	0.00025
1	252	0.021	0
1	264	0.022	0.00075
1	264	0.022	0.0005
1	264	0.022	0.00025
1	264	0.022	0
1	276	0.023	0.00075
1	276	0.023	0.0005
1	276	0.023	0.00025
1	276	0.023	0
1	288	0.024	0.00075
1	288	0.024	0.0005
1	288	0.024	0.00025
1	288	0.024	0
1	300	0.025	0.00075
1	300	0.025	0.0005
1	300	0.025	0.00025
1	300	0.025	0
1	312	0.026	0.00075
1	312	0.026	0.0005
1	312	0.026	0.00025
1	312	0.026	0
1	324	0.027	0.00075
1	324	0.027	0.0005
1	324	0.027	0.00025
1	324	0.027	0
1	336	0.028	0.00075
1	336	0.028	0.0005
1	336	0.028	0.00025
1	336	0.028	0
1	348	0.029	0.00075
1	348	0.029	0.0005
1	348	0.029	0.00025
1	348	0.029	0
1	360	0.03	0.00075
1	360	0.03	0.0005
1	360	0.03	0.00025
1	360	0.03	0
1	372	0.031	0.00075
1	372	0.031	0.0005
1	372	0.031	0.00025
1	372	0.031	0
1	384	0.032	0.00075
1	384	0.032	0.0005
1	384	0.032	0.00025
1	384	0.032	0
1	396	0.033	0.00075
1	396	0.033	0.0005
1	396	0.033	0.00025
1	396	0.033	0
1	408	0.034	0.00075
1	408	0.034	0.0005
1	408	0.034	0.00025
1	408	0.034	0
1	420	0.035	0.00075
1	420	0.035	0.0005
1	420	0.035	0.00025
1	420	0.035	0
1	432	0.036	0.00075
1	432	0.036	0.0005
1	432	0.036	0.00025
1	432	0.036	0
1	444	0.037	0.00075
1	444	0.037	0.0005
1	444	0.037	0.00025
1	444	0.037	0
1	456	0.038	0.00075
1	456	0.038	0.0005
1	456	0.038	0.00025
1	456	0.038	0
1	468	0.039	0.00075
1	468	0.039	0.0005
1	468	0.039	0.00025
1	468	0.039	0
1	480	0.04	0.00075
1	480	0.04	0.0005
1	480	0.04	0.00025
1	480	0.04	0
1	492	0.041	0.00075
1	492	0.041	0.0005
1	492	0.041	0.00025
1	492	0.041	0
1	504	0.042	0.00075
1	504	0.042	0.0005
1	504	0.042	0.00025
1	504	0.042	0
1	516	0.043	0.00075
1	516	0.043	0.0005
1	516	0.043	0.00025
1	516	0.043	0
1	528	0.044	0.00075
1	528	0.044	0.0005
1	528	0.044	0.00025
1	528	0.044	0
1	540	0.045	0.00075
1	540	0.045	0.0005
1	540	0.045	0.00025
1	540	0.045	0
1	552	0.046	0.00075
1	552	0.046	0.0005
1	552	0.046	0.00025
1	552	0.046	0
1	564	0.047	0.00075
1	564	0.047	0.0005
1	564	0.047	0.00025
1	564	0.047	0
1	576	0.048	0.00075
1	576	0.048	0.0005
1	576	0.048	0.00025
1	576	0.048	0
1	588	0.049	0.00075
1	588	0.049	0.0005
1	588	0.049	0.00025
1	588	0.049	0
1	600	0.05	0.00075
1	600	0.05	0.0005
1	600	0.05	0.00025
1	600	0.05	0
1	612	0.051	0.00075
1	612	0.051	0.0005
1	612	0.051	0.00025
1	612	0.051	0
1	624	0.052	0.00075
1	624	0.052	0.0005
1	624	0.052	0.00025
1	624	0.052	0
1	636	0.053	0.00075
1	636	0.053	0.0005
1	636	0.053	0.00025
1	636	0.053	0
1	648	0.054	0.00075
1	648	0.054	0.0005
1	648	0.054	0.00025
1	648	0.054	0
1	660	0.055	0.00075
1	660	0.055	0.0005
1	660	0.055	0.00025
1	660	0.055	0
1	672	0.056	0.00075
1	672	0.056	0.0005
1	672	0.056	0.00025
1	672	0.056	0
1	684	0.057	0.00075
1	684	0.057	0.0005
1	684	0.057	0.00025
1	684	0.057	0
1	696	0.058	0.00075
1	696	0.058	0.0005
1	696	0.058	0.00025
1	696	0.058	0
1	708	0.059	0.00075
1	708	0.059	0.0005
1	708	0.059	0.00025
1	708	0.059	0
1	720	0.06	0.00075
1	720	0.06	0.0005
1	720	0.06	0.00025
1	720	0.06	0
1	732	0.061	0.00075
1	732	0.061	0.0005
1	732	0.061	0.00025
1	732	0.061	0
1	744	0.062	0.00075
1	744	0.062	0.0005
1	744	0.062	0.00025
1	744	0.062	0
1	756	0.063	0.00075
1	756	0.063	0.0005
1	756	0.063	0.00025
1	756	0.063	0
1	768	0.064	0.00075
1	768	0.064	0.0005
1	768	0.064	0.00025
1	768	0.064	0
1	780	0.065	0.00075
1	780	0.065	0.0005
1	780	0.065	0.00025
1	780	0.065	0
1	792	0.066	0.00075
1	792	0.066	0.0005
1	792	0.066	0.00025
1	792	0.066	0
1	804	0.067	0.00075
1	804	0.067	0.0005
1	804	0.067	0.00025
1	804	0.067	0
1	816	0.068	0.00075
1	816	0.068	0.0005
1	816	0.068	0.00025
1	816	0.068	0
1	828	0.069	0.00075
1	828	0.069	0.0005
1	828	0.069	0.00025
1	828	0.069	0
1	840	0.07	0.00075
1	840	0.07	0.0005
1	840	0.07	0.00025
1	840	0.07	0
1	852	0.071	0.00075
1	852	0.071	0.0005
1	852	0.071	0.00025
1	852	0.071	0
1	864	0.072	0.00075
1	864	0.072	0.0005
1	864	0.072	0.00025
1	864	0.072	0
1	876	0.073	0.00075
1	876	0.073	0.0005
1	876	0.073	0.00025
1	876	0.073	0
1	888	0.074	0.00075
1	888	0.074	0.0005
1	888	0.074	0.00025
1	888	0.074	0
1	900	0.075	0.00075
1	900	0.075	0.0005
1	900	0.075	0.00025
1	900	0.075	0
1	912	0.076	0.00075
1	912	0.076	0.0005
1	912	0.076	0.00025
1	912	0.076	0
1	924	0.077	0.00075
1	924	0.077	0.0005
1	924	0.077	0.00025
1	924	0.077	0
1	936	0.078	0.00075
1	936	0.078	0.0005
1	936	0.078	0.00025
1	936	0.078	0
1	948	0.079	0.00075
1	948	0.079	0.0005
1	948	0.079	0.00025
1	948	0.079	0
1	960	0.08	0.00075
1	960	0.08	0.0005
1	960	0.08	0.00025
1	960	0.08	0
1	972	0.081	0.00075
1	972	0.081	0.0005
1	972	0.081	0.00025
1	972	0.081	0
1	984	0.082	0.00075
1	984	0.082	0.0005
1	984	0.082	0.00025
1	984	0.082	0
1	996	0.083	0.00075
1	996	0.083	0.0005
1	996	0.083	0.00025
1	996	0.083	0
1	1008	0.084	0.00075
1	1008	0.084	0.0005
1	1008	0.084	0.00025
1	1008	0.084	0
1	1020	0.085	0.00075
1	1020	0.085	0.0005
1	1020	0.085	0.00025
1	1020	0.085	0
1	1032	0.086	0.00075
1	1032	0.086	0.0005
1	1032	0.086	0.00025
1	1032	0.086	0
1	1044	0.087	0.00075
1	1044	0.087	0.0005
1	1044	0.087	0.00025
1	1044	0.087	0
1	1056	0.088	0.00075
1	1056	0.088	0.0005
1	1056	0.088	0.00025
1	1056	0.088	0
1	1068	0.089	0.00075
1	1068	0.089	0.0005
1	1068	0.089	0.00025
1	1068	0.089	0
1	1080	0.09	0.00075
1	1080	0.09	0.0005
1	1080	0.09	0.00025
1	1080	0.09	0
1	1092	0.091	0.00075
1	1092	0.091	0.0005
1	1092	0.091	0.00025
1	1092	0.091	0
1	1104	0.092	0.00075
1	1104	0.092	0.0005
1	1104	0.092	0.00025
1	1104	0.092	0
1	1116	0.093	0.00075
1	1116	0.093	0.0005
1	1116	0.093	0.00025
1	1116	0.093	0
1	1128	0.094	0.00075
1	1128	0.094	0.0005
1	1128	0.094	0.00025
1	1128	0.094	0
1	1140	0.095	0.00075
1	1140	0.095	0.0005
1	1140	0.095	0.00025
1	1140	0.095	0
1	1152	0.096	0.00075
1	1152	0.096	0.0005
1	1152	0.096	0.00025
1	1152	0.096	0
1	1164	0.097	0.00075
1	1164	0.097	0.0005
1	1164	0.097	0.00025
1	1164	0.097	0
1	1176	0.098	0.00075
1	1176	0.098	0.0005
1	1176	0.098	0.00025
1	1176	0.098	0
1	1188	0.099	0.00075
1	1188	0.099	0.0005
1	1188	0.099	0.00025
1	1188	0.099	0
1	1200	0.1	0.00075
1	1200	0.1	0.0005
1	1200	0.1	0.00025
1	1200	0.1	0
1	1212	0.101	0.00075
1	1212	0.101	0.0005
1	1212	0.101	0.00025
1	1212	0.101	0
1	1224	0.102	0.00075
1	1224	0.102	0.0005
1	1224	0.102	0.00025
1	1224	0.102	0
1	1236	0.103	0.00075
1	1236	0.103	0.0005
1	1236	0.103	0.00025
1	1236	0.103	0
1	1248	0.104	0.00075
1	1248	0.104	0.0005
1	1248	0.104	0.00025
1	1248	0.104	0
1	1260	0.105	0.00075
1	1260	0.105	0.0005
1	1260	0.105	0.00025
1	1260	0.105	0
1	1272	0.106	0.00075
1	1272	0.106	0.0005
1	1272	0.106	0.00025
1	1272	0.106	0
1	1284	0.107	0.00075
1	1284	0.107	0.0005
1	1284	0.107	0.00025
1	1284	0.107	0
1	1296	0.108	0.00075
1	1296	0.108	0.0005
1	1296	0.108	0.00025
1	1296	0.108	0
1	1308	0.109	0.00075
1	1308	0.109	0.0005
1	1308	0.109	0.00025
1	1308	0.109	0
1	1320	0.11	0.00075
1	1320	0.11	0.0005
1	1320	0.11	0.00025
1	1320	0.11	0
1	1332	0.111	0.00075
1	1332	0.111	0.0005
1	1332	0.111	0.00025
1	1332	0.111	0
1	1344	0.112	0.00075
1	1344	0.112	0.0005
1	1344	0.112	0.00025
1	1344	0.112	0
1	1356	0.113	0.00075
1	1356	0.113	0.0005
1	1356	0.113	0.00025
1	1356	0.113	0
1	1368	0.114	0.00075
1	1368	0.114	0.0005
1	1368	0.114	0.00025
1	1368	0.114	0
1	1380	0.115	0.00075
1	1380	0.115	0.0005
1	1380	0.115	0.00025
1	1380	0.115	0
1	1392	0.116	0.00075
1	1392	0.116	0.0005
1	1392	0.116	0.00025
1	1392	0.116	0
1	1404	0.117	0.00075
1	1404	0.117	0.0005
1	1404	0.117	0.00025
1	1404	0.117	0
1	1416	0.118	0.00075
1	1416	0.118	0.0005
1	1416	0.118	0.00025
1	1416	0.118	0
1	1428	0.119	0.00075
1	1428	0.119	0.0005
1	1428	0.119	0.00025
1	1428	0.119	0
1	1440	0.12	0.00075
1	1440	0.12	0.0005
1	1440	0.12	0.00025
1	1440	0.12	0
1	1452	0.121	0.00075
1	1452	0.121	0.0005
1	1452	0.121	0.00025
1	1452	0.121	0
1	1464	0.122	0.00075
1	1464	0.122	0.0005
1	1464	0.122	0.00025
1	1464	0.122	0
1	1476	0.123	0.00075
1	1476	0.123	0.0005
1	1476	0.123	0.00025
1	1476	0.123	0
1	1488	0.124	0.00075
1	1488	0.124	0.0005
1	1488	0.124	0.00025
1	1488	0.124	0
1	1500	0.125	0.00075
1	1500	0.125	0.0005
1	1500	0.125	0.00025
1	1500	0.125	0
1	1512	0.126	0.00075
1	1512	0.126	0.0005
1	1512	0.126	0.00025
1	1512	0.126	0
1	1524	0.127	0.00075
1	1524	0.127	0.0005
1	1524	0.127	0.00025
1	1524	0.127	0
1	1536	0.128	0.00075
1	1536	0.128	0.0005
1	1536	0.128	0.00025
1	1536	0.128	0
1	1548	0.129	0.00075
1	1548	0.129	0.0005
1	1548	0.129	0.00025
1	1548	0.129	0
1	1560	0.13	0.00075
1	1560	0.13	0.0005
1	1560	0.13	0.00025
1	1560	0.13	0
1	1572	0.131	0.00075
1	1572	0.131	0.0005
1	1572	0.131	0.00025
1	1572	0.131	0
1	1584	0.132	0.00075
1	1584	0.132	0.0005
1	1584	0.132	0.00025
1	1584	0.132	0
1	1596	0.133	0.00075
1	1596	0.133	0.0005
1	1596	0.133	0.00025
1	1596	0.133	0
1	1608	0.134	0.00075
1	1608	0.134	0.0005
1	1608	0.134	0.00025
1	1608	0.134	0
1	1620	0.135	0.00075
1	1620	0.135	0.0005
1	1620	0.135	0.00025
1	1620	0.135	0
1	1632	0.136	0.00075
1	1632	0.136	0.0005
1	1632	0.136	0.00025
1	1632	0.136	0
1	1644	0.137	0.00075
1	1644	0.137	0.0005
1	1644	0.137	0.00025
1	1644	0.137	0
1	1656	0.138	0.00075
1	1656	0.138	0.0005
1	1656	0.138	0.00025
1	1656	0.138	0
1	1668	0.139	0.00075
1	1668	0.139	0.0005
1	1668	0.139	0.00025
1	1668	0.139	0
1	1680	0.14	0.00075
1	1680	0.14	0.0005
1	1680	0.14	0.00025
1	1680	0.14	0
1	1692	0.141	0.00075
1	1692	0.141	0.0005
1	1692	0.141	0.00025
1	1692	0.141	0
1	1704	0.142	0.00075
1	1704	0.142	0.0005
1	1704	0.142	0.00025
1	1704	0.142	0
1	1716	0.143	0.00075
1	1716	0.143	0.0005
1	1716	0.143	0.00025
1	1716	0.143	0
1	1728	0.144	0.00075
1	1728	0.144	0.0005
1	1728	0.144	0.00025
1	1728	0.144	0
1	1740	0.145	0.00075
1	1740	0.145	0.0005
1	1740	0.145	0.00025
1	1740	0.145	0
1	1752	0.146	0.00075
1	1752	0.146	0.0005
1	1752	0.146	0.00025
1	1752	0.146	0
1	1764	0.147	0.00075
1	1764	0.147	0.0005
1	1764	0.147	0.00025
1	1764	0.147	0
1	1776	0.148	0.00075
1	1776	0.148	0.0005
1	1776	0.148	0.00025
1	1776	0.148	0
1	1788	0.149	0.00075
1	1788	0.149	0.0005
1	1788	0.149	0.00025
1	1788	0.149	0
1	1800	0.15	0.00075
1	1800	0.15	0.0005
1	1800	0.15	0.00025
1	1800	0.15	0
1	1812	0.151	0.00075
1	1812	0.151	0.0005
1	1812	0.151	0.00025
1	1812	0.151	0
1	1824	0.152	0.00075
1	1824	0.152	0.0005
1	1824	0.152	0.00025
1	1824	0.152	0
1	1836	0.153	0.00075
1	1836	0.153	0.0005
1	1836	0.153	0.00025
1	1836	0.153	0
1	1848	0.154	0.00075
1	1848	0.154	0.0005
1	1848	0.154	0.00025
1	1848	0.154	0
1	1860	0.155	0.00075
1	1860	0.155	0.0005
1	1860	0.155	0.00025
1	1860	0.155	0
1	1872	0.156	0.00075
1	1872	0.156	0.0005
1	1872	0.156	0.00025
1	1872	0.156	0
1	1884	0.157	0.00075
1	1884	0.157	0.0005
1	1884	0.157	0.00025
1	1884	0.157	0
1	1896	0.158	0.00075
1	1896	0.158	0.0005
1	1896	0.158	0.00025
1	1896	0.158	0
1	1908	0.159	0.00075
1	1908	0.159	0.0005
1	1908	0.159	0.00025
1	1908	0.159	0
1	1920	0.16	0.00075
1	1920	0.16	0.0005
1	1920	0.16	0.00025
1	1920	0.16	0
1	1932	0.161	0.00075
1	1932	0.161	0.0005
1	1932	0.161	0.00025
1	1932	0.161	0
1	1944	0.162	0.00075
1	1944	0.162	0.0005
1	1944	0.162	0.00025
1	1944	0.162	0
1	1956	0.163	0.00075
1	1956	0.163	0.0005
1	1956	0.163	0.00025
1	1956	0.163	0
1	1968	0.164	0.00075
1	1968	0.164	0.0005
1	1968	0.164	0.00025
1	1968	0.164	0
1	1980	0.165	0.00075
1	1980	0.165	0.0005
1	1980	0.165	0.00025
1	1980	0.165	0
1	1992	0.166	0.00075
1	1992	0.166	0.0005
1	1992	0.166	0.00025
1	1992	0.166	0
1	2004	0.167	0.00075
1	2004	0.167	0.0005
1	2004	0.167	0.00025
1	2004	0.167	0
1	2016	0.168	0.00075
1	2016	0.168	0.0005
1	2016	0.168	0.00025
1	2016	0.168	0
1	2028	0.169	0.00075
1	2028	0.169	0.0005
1	2028	0.169	0.00025
1	2028	0.169	0
1	2040	0.17	0.00075
1	2040	0.17	0.0005
1	2040	0.17	0.00025
1	2040	0.17	0
1	2052	0.171	0.00075
1	2052	0.171	0.0005
1	2052	0.171	0.00025
1	2052	0.171	0
1	2064	0.172	0.00075
1	2064	0.172	0.0005
1	2064	0.172	0.00025
1	2064	0.172	0
1	2076	0.173	0.00075
1	2076	0.173	0.0005
1	2076	0.173	0.00025
1	2076	0.173	0
1	2088	0.174	0.00075
1	2088	0.174	0.0005
1	2088	0.174	0.00025
1	2088	0.174	0
1	2100	0.175	0.00075
1	2100	0.175	0.0005
1	2100	0.175	0.00025
1	2100	0.175	0
1	2112	0.176	0.00075
1	2112	0.176	0.0005
1	2112	0.176	0.00025
1	2112	0.176	0
1	2124	0.177	0.00075
1	2124	0.177	0.0005
1	2124	0.177	0.00025
1	2124	0.177	0
1	2136	0.178	0.00075
1	2136	0.178	0.0005
1	2136	0.178	0.00025
1	2136	0.178	0
1	2148	0.179	0.00075
1	2148	0.179	0.0005
1	2148	0.179	0.00025
1	2148	0.179	0
1	2160	0.18	0.00075
1	2160	0.18	0.0005
1	2160	0.18	0.00025
1	2160	0.18	0
1	2172	0.181	0.00075
1	2172	0.181	0.0005
1	2172	0.181	0.00025
1	2172	0.181	0
1	2184	0.182	0.00075
1	2184	0.182	0.0005
1	2184	0.182	0.00025
1	2184	0.182	0
1	2196	0.183	0.00075
1	2196	0.183	0.0005
1	2196	0.183	0.00025
1	2196	0.183	0
1	2208	0.184	0.00075
1	2208	0.184	0.0005
1	2208	0.184	0.00025
1	2208	0.184	0
1	2220	0.185	0.00075
1	2220	0.185	0.0005
1	2220	0.185	0.00025
1	2220	0.185	0
1	2232	0.186	0.00075
1	2232	0.186	0.0005
1	2232	0.186	0.00025
1	2232	0.186	0
1	2244	0.187	0.00075
1	2244	0.187	0.0005
1	2244	0.187	0.00025
1	2244	0.187	0
1	2256	0.188	0.00075
1	2256	0.188	0.0005
1	2256	0.188	0.00025
1	2256	0.188	0
1	2268	0.189	0.00075
1	2268	0.189	0.0005
1	2268	0.189	0.00025
1	2268	0.189	0
1	2280	0.19	0.00075
1	2280	0.19	0.0005
1	2280	0.19	0.00025
1	2280	0.19	0
1	2292	0.191	0.00075
1	2292	0.191	0.0005
1	2292	0.191	0.00025
1	2292	0.191	0
1	2304	0.192	0.00075
1	2304	0.192	0.0005
1	2304	0.192	0.00025
1	2304	0.192	0
1	2316	0.193	0.00075
1	2316	0.193	0.0005
1	2316	0.193	0.00025
1	2316	0.193	0
1	2328	0.194	0.00075
1	2328	0.194	0.0005
1	2328	0.194	0.00025
1	2328	0.194	0
1	2340	0.195	0.00075
1	2340	0.195	0.0005
1	2340	0.195	0.00025
1	2340	0.195	0
1	2352	0.196	0.00075
1	2352	0.196	0.0005
1	2352	0.196	0.00025
1	2352	0.196	0
1	2364	0.197	0.00075
1	2364	0.197	0.0005
1	2364	0.197	0.00025
1	2364	0.197	0
1	2376	0.198	0.00075
1	2376	0.198	0.0005
1	2376	0.198	0.00025
1	2376	0.198	0
1	2388	0.199	0.00075
1	2388	0.199	0.0005
1	2388	0.199	0.00025
1	2388	0.199	0
1	2400	0.2	0.00075
1	2400	0.2	0.0005
1	2400	0.2	0.00025
1	2400	0.2	0
1	2412	0.201	0.00075
1	2412	0.201	0.0005
1	2412	0.201	0.00025
1	2412	0.201	0
1	2424	0.202	0.00075
1	2424	0.202	0.0005
1	2424	0.202	0.00025
1	2424	0.202	0
1	2436	0.203	0.00075
1	2436	0.203	0.0005
1	2436	0.203	0.00025
1	2436	0.203	0
1	2448	0.204	0.00075
1	2448	0.204	0.0005
1	2448	0.204	0.00025
1	2448	0.204	0
1	2460	0.205	0.00075
1	2460	0.205	0.0005
1	2460	0.205	0.00025
1	2460	0.205	0
1	2472	0.206	0.00075
1	2472	0.206	0.0005
1	2472	0.206	0.00025
1	2472	0.206	0
1	2484	0.207	0.00075
1	2484	0.207	0.0005
1	2484	0.207	0.00025
1	2484	0.207	0
1	2496	0.208	0.00075
1	2496	0.208	0.0005
1	2496	0.208	0.00025
1	2496	0.208	0
1	2508	0.209	0.00075
1	2508	0.209	0.0005
1	2508	0.209	0.00025
1	2508	0.209	0
1	2520	0.21	0.00075
1	2520	0.21	0.0005
1	2520	0.21	0.00025
1	2520	0.21	0
1	2532	0.211	0.00075
1	2532	0.211	0.0005
1	2532	0.211	0.00025
1	2532	0.211	0
1	2544	0.212	0.00075
1	2544	0.212	0.0005
1	2544	0.212	0.00025
1	2544	0.212	0
1	2556	0.213	0.00075
1	2556	0.213	0.0005
1	2556	0.213	0.00025
1	2556	0.213	0
1	2568	0.214	0.00075
1	2568	0.214	0.0005
1	2568	0.214	0.00025
1	2568	0.214	0
1	2580	0.215	0.00075
1	2580	0.215	0.0005
1	2580	0.215	0.00025
1	2580	0.215	0
1	2592	0.216	0.00075
1	2592	0.216	0.0005
1	2592	0.216	0.00025
1	2592	0.216	0
1	2604	0.217	0.00075
1	2604	0.217	0.0005
1	2604	0.217	0.00025
1	2604	0.217	0
1	2616	0.218	0.00075
1	2616	0.218	0.0005
1	2616	0.218	0.00025
1	2616	0.218	0
1	2628	0.219	0.00075
1	2628	0.219	0.0005
1	2628	0.219	0.00025
1	2628	0.219	0
1	2640	0.22	0.00075
1	2640	0.22	0.0005
1	2640	0.22	0.00025
1	2640	0.22	0
1	2652	0.221	0.00075
1	2652	0.221	0.0005
1	2652	0.221	0.00025
1	2652	0.221	0
1	2664	0.222	0.00075
1	2664	0.222	0.0005
1	2664	0.222	0.00025
1	2664	0.222	0
1	2676	0.223	0.00075
1	2676	0.223	0.0005
1	2676	0.223	0.00025
1	2676	0.223	0
1	2688	0.224	0.00075
1	2688	0.224	0.0005
1	2688	0.224	0.00025
1	2688	0.224	0
1	2700	0.225	0.00075
1	2700	0.225	0.0005
1	2700	0.225	0.00025
1	2700	0.225	0
1	2712	0.226	0.00075
1	2712	0.226	0.0005
1	2712	0.226	0.00025
1	2712	0.226	0
1	2724	0.227	0.00075
1	2724	0.227	0.0005
1	2724	0.227	0.00025
1	2724	0.227	0
1	2736	0.228	0.00075
1	2736	0.228	0.0005
1	2736	0.228	0.00025
1	2736	0.228	0
1	2748	0.229	0.00075
1	2748	0.229	0.0005
1	2748	0.229	0.00025
1	2748	0.229	0
1	2760	0.23	0.00075
1	2760	0.23	0.0005
1	2760	0.23	0.00025
1	2760	0.23	0
1	2772	0.231	0.00075
1	2772	0.231	0.0005
1	2772	0.231	0.00025
1	2772	0.231	0
1	2784	0.232	0.00075
1	2784	0.232	0.0005
1	2784	0.232	0.00025
1	2784	0.232	0
1	2796	0.233	0.00075
1	2796	0.233	0.0005
1	2796	0.233	0.00025
1	2796	0.233	0
1	2808	0.234	0.00075
1	2808	0.234	0.0005
1	2808	0.234	0.00025
1	2808	0.234	0
1	2820	0.235	0.00075
1	2820	0.235	0.0005
1	2820	0.235	0.00025
1	2820	0.235	0
1	2832	0.236	0.00075
1	2832	0.236	0.0005
1	2832	0.236	0.00025
1	2832	0.236	0
1	2844	0.237	0.00075
1	2844	0.237	0.0005
1	2844	0.237	0.00025
1	2844	0.237	0
1	2856	0.238	0.00075
1	2856	0.238	0.0005
1	2856	0.238	0.00025
1	2856	0.238	0
1	2868	0.239	0.00075
1	2868	0.239	0.0005
1	2868	0.239	0.00025
1	2868	0.239	0
1	2880	0.24	0.00075
1	2880	0.24	0.0005
1	2880	0.24	0.00025
1	2880	0.24	0
1	2892	0.241	0.00075
1	2892	0.241	0.0005
1	2892	0.241	0.00025
1	2892	0.241	0
1	2904	0.242	0.00075
1	2904	0.242	0.0005
1	2904	0.242	0.00025
1	2904	0.242	0
1	2916	0.243	0.00075
1	2916	0.243	0.0005
1	2916	0.243	0.00025
1	2916	0.243	0
1	2928	0.244	0.00075
1	2928	0.244	0.0005
1	2928	0.244	0.00025
1	2928	0.244	0
1	2940	0.245	0.00075
1	2940	0.245	0.0005
1	2940	0.245	0.00025
1	2940	0.245	0
1	2952	0.246	0.00075
1	2952	0.246	0.0005
1	2952	0.246	0.00025
1	2952	0.246	0
1	2964	0.247	0.00075
1	2964	0.247	0.0005
1	2964	0.247	0.00025
1	2964	0.247	0
1	2976	0.248	0.00075
1	2976	0.248	0.0005
1	2976	0.248	0.00025
1	2976	0.248	0
1	2988	0.249	0.00075
1	2988	0.249	0.0005
1	2988	0.249	0.00025
1	2988	0.249	0
1	3000	0.25	0.00075
1	3000	0.25	0.0005
1	3000	0.25	0.00025
1	3000	0.25	0
1	3012	0.251	0.00075
1	3012	0.251	0.0005
1	3012	0.251	0.00025
1	3012	0.251	0
1	3024	0.252	0.00075
1	3024	0.252	0.0005
1	3024	0.252	0.00025
1	3024	0.252	0
1	3036	0.253	0.00075
1	3036	0.253	0.0005
1	3036	0.253	0.00025
1	3036	0.253	0
1	3048	0.254	0.00075
1	3048	0.254	0.0005
1	3048	0.254	0.00025
1	3048	0.254	0
1	3060	0.255	0.00075
1	3060	0.255	0.0005
1	3060	0.255	0.00025
1	3060	0.255	0
1	3072	0.256	0.00075
1	3072	0.256	0.0005
1	3072	0.256	0.00025
1	3072	0.256	0
1	3084	0.257	0.00075
1	3084	0.257	0.0005
1	3084	0.257	0.00025
1	3084	0.257	0
1	3096	0.258	0.00075
1	3096	0.258	0.0005
1	3096	0.258	0.00025
1	3096	0.258	0
1	3108	0.259	0.00075
1	3108	0.259	0.0005
1	3108	0.259	0.00025
1	3108	0.259	0
1	3120	0.26	0.00075
1	3120	0.26	0.0005
1	3120	0.26	0.00025
1	3120	0.26	0
1	3132	0.261	0.00075
1	3132	0.261	0.0005
1	3132	0.261	0.00025
1	3132	0.261	0
1	3144	0.262	0.00075
1	3144	0.262	0.0005
1	3144	0.262	0.00025
1	3144	0.262	0
1	3156	0.263	0.00075
1	3156	0.263	0.0005
1	3156	0.263	0.00025
1	3156	0.263	0
1	3168	0.264	0.00075
1	3168	0.264	0.0005
1	3168	0.264	0.00025
1	3168	0.264	0
1	3180	0.265	0.00075
1	3180	0.265	0.0005
1	3180	0.265	0.00025
1	3180	0.265	0
1	3192	0.266	0.00075
1	3192	0.266	0.0005
1	3192	0.266	0.00025
1	3192	0.266	0
1	3204	0.267	0.00075
1	3204	0.267	0.0005
1	3204	0.267	0.00025
1	3204	0.267	0
1	3216	0.268	0.00075
1	3216	0.268	0.0005
1	3216	0.268	0.00025
1	3216	0.268	0
1	3228	0.269	0.00075
1	3228	0.269	0.0005
1	3228	0.269	0.00025
1	3228	0.269	0
1	3240	0.27	0.00075
1	3240	0.27	0.0005
1	3240	0.27	0.00025
1	3240	0.27	0
1	3252	0.271	0.00075
1	3252	0.271	0.0005
1	3252	0.271	0.00025
1	3252	0.271	0
1	3264	0.272	0.00075
1	3264	0.272	0.0005
1	3264	0.272	0.00025
1	3264	0.272	0
1	3276	0.273	0.00075
1	3276	0.273	0.0005
1	3276	0.273	0.00025
1	3276	0.273	0
1	3288	0.274	0.00075
1	3288	0.274	0.0005
1	3288	0.274	0.00025
1	3288	0.274	0
1	3300	0.275	0.00075
1	3300	0.275	0.0005
1	3300	0.275	0.00025
1	3300	0.275	0
1	3312	0.276	0.00075
1	3312	0.276	0.0005
1	3312	0.276	0.00025
1	3312	0.276	0
1	3324	0.277	0.00075
1	3324	0.277	0.0005
1	3324	0.277	0.00025
1	3324	0.277	0
1	3336	0.278	0.00075
1	3336	0.278	0.0005
1	3336	0.278	0.00025
1	3336	0.278	0
1	3348	0.279	0.00075
1	3348	0.279	0.0005
1	3348	0.279	0.00025
1	3348	0.279	0
1	3360	0.28	0.00075
1	3360	0.28	0.0005
1	3360	0.28	0.00025
1	3360	0.28	0
1	3372	0.281	0.00075
1	3372	0.281	0.0005
1	3372	0.281	0.00025
1	3372	0.281	0
1	3384	0.282	0.00075
1	3384	0.282	0.0005
1	3384	0.282	0.00025
1	3384	0.282	0
1	3396	0.283	0.00075
1	3396	0.283	0.0005
1	3396	0.283	0.00025
1	3396	0.283	0
1	3408	0.284	0.00075
1	3408	0.284	0.0005
1	3408	0.284	0.00025
1	3408	0.284	0
1	3420	0.285	0.00075
1	3420	0.285	0.0005
1	3420	0.285	0.00025
1	3420	0.285	0
1	3432	0.286	0.00075
1	3432	0.286	0.0005
1	3432	0.286	0.00025
1	3432	0.286	0
1	3444	0.287	0.00075
1	3444	0.287	0.0005
1	3444	0.287	0.00025
1	3444	0.287	0
1	3456	0.288	0.00075
1	3456	0.288	0.0005
1	3456	0.288	0.00025
1	3456	0.288	0
1	3468	0.289	0.00075
1	3468	0.289	0.0005
1	3468	0.289	0.00025
1	3468	0.289	0
1	3480	0.29	0.00075
1	3480	0.29	0.0005
1	3480	0.29	0.00025
1	3480	0.29	0
1	3492	0.291	0.00075
1	3492	0.291	0.0005
1	3492	0.291	0.00025
1	3492	0.291	0
1	3504	0.292	0.00075
1	3504	0.292	0.0005
1	3504	0.292	0.00025
1	3504	0.292	0
1	3516	0.293	0.00075
1	3516	0.293	0.0005
1	3516	0.293	0.00025
1	3516	0.293	0
1	3528	0.294	0.00075
1	3528	0.294	0.0005
1	3528	0.294	0.00025
1	3528	0.294	0
1	3540	0.295	0.00075
1	3540	0.295	0.0005
1	3540	0.295	0.00025
1	3540	0.295	0
1	3552	0.296	0.00075
1	3552	0.296	0.0005
1	3552	0.296	0.00025
1	3552	0.296	0
1	3564	0.297	0.00075
1	3564	0.297	0.0005
1	3564	0.297	0.00025
1	3564	0.297	0
1	3576	0.298	0.00075
1	3576	0.298	0.0005
1	3576	0.298	0.00025
1	3576	0.298	0
1	3588	0.299	0.00075
1	3588	0.299	0.0005
1	3588	0.299	0.00025
1	3588	0.299	0
1	3600	0.3	0.00075
1	3600	0.3	0.0005
1	3600	0.3	0.00025
1	3600	0.3	0
1	3612	0.301	0.00075
1	3612	0.301	0.0005
1	3612	0.301	0.00025
1	3612	0.301	0
1	3624	0.302	0.00075
1	3624	0.302	0.0005
1	3624	0.302	0.00025
1	3624	0.302	0
1	3636	0.303	0.00075
1	3636	0.303	0.0005
1	3636	0.303	0.00025
1	3636	0.303	0
1	3648	0.304	0.00075
1	3648	0.304	0.0005
1	3648	0.304	0.00025
1	3648	0.304	0
1	3660	0.305	0.00075
1	3660	0.305	0.0005
1	3660	0.305	0.00025
1	3660	0.305	0
1	3672	0.306	0.00075
1	3672	0.306	0.0005
1	3672	0.306	0.00025
1	3672	0.306	0
1	3684	0.307	0.00075
1	3684	0.307	0.0005
1	3684	0.307	0.00025
1	3684	0.307	0
1	3696	0.308	0.00075
1	3696	0.308	0.0005
1	3696	0.308	0.00025
1	3696	0.308	0
1	3708	0.309	0.00075
1	3708	0.309	0.0005
1	3708	0.309	0.00025
1	3708	0.309	0
1	3720	0.31	0.00075
1	3720	0.31	0.0005
1	3720	0.31	0.00025
1	3720	0.31	0
1	3732	0.311	0.00075
1	3732	0.311	0.0005
1	3732	0.311	0.00025
1	3732	0.311	0
1	3744	0.312	0.00075
1	3744	0.312	0.0005
1	3744	0.312	0.00025
1	3744	0.312	0
1	3756	0.313	0.00075
1	3756	0.313	0.0005
1	3756	0.313	0.00025
1	3756	0.313	0
1	3768	0.314	0.00075
1	3768	0.314	0.0005
1	3768	0.314	0.00025
1	3768	0.314	0
1	3780	0.315	0.00075
1	3780	0.315	0.0005
1	3780	0.315	0.00025
1	3780	0.315	0
1	3792	0.316	0.00075
1	3792	0.316	0.0005
1	3792	0.316	0.00025
1	3792	0.316	0
1	3804	0.317	0.00075
1	3804	0.317	0.0005
1	3804	0.317	0.00025
1	3804	0.317	0
1	3816	0.318	0.00075
1	3816	0.318	0.0005
1	3816	0.318	0.00025
1	3816	0.318	0
1	3828	0.319	0.00075
1	3828	0.319	0.0005
1	3828	0.319	0.00025
1	3828	0.319	0
1	3840	0.32	0.00075
1	3840	0.32	0.0005
1	3840	0.32	0.00025
1	3840	0.32	0
1	3852	0.321	0.00075
1	3852	0.321	0.0005
1	3852	0.321	0.00025
1	3852	0.321	0
1	3864	0.322	0.00075
1	3864	0.322	0.0005
1	3864	0.322	0.00025
1	3864	0.322	0
1	3876	0.323	0.00075
1	3876	0.323	0.0005
1	3876	0.323	0.00025
1	3876	0.323	0
1	3888	0.324	0.00075
1	3888	0.324	0.0005
1	3888	0.324	0.00025
1	3888	0.324	0
1	3900	0.325	0.00075
1	3900	0.325	0.0005
1	3900	0.325	0.00025
1	3900	0.325	0
1	3912	0.326	0.00075
1	3912	0.326	0.0005
1	3912	0.326	0.00025
1	3912	0.326	0
1	3924	0.327	0.00075
1	3924	0.327	0.0005
1	3924	0.327	0.00025
1	3924	0.327	0
1	3936	0.328	0.00075
1	3936	0.328	0.0005
1	3936	0.328	0.00025
1	3936	0.328	0
1	3948	0.329	0.00075
1	3948	0.329	0.0005
1	3948	0.329	0.00025
1	3948	0.329	0
1	3960	0.33	0.00075
1	3960	0.33	0.0005
1	3960	0.33	0.00025
1	3960	0.33	0
1	3972	0.331	0.00075
1	3972	0.331	0.0005
1	3972	0.331	0.00025
1	3972	0.331	0
1	3984	0.332	0.00075
1	3984	0.332	0.0005
1	3984	0.332	0.00025
1	3984	0.332	0
1	3996	0.333	0.00075
1	3996	0.333	0.0005
1	3996	0.333	0.00025
1	3996	0.333	0
1	4008	0.334	0.00075
1	4008	0.334	0.0005
1	4008	0.334	0.00025
1	4008	0.334	0
1	4020	0.335	0.00075
1	4020	0.335	0.0005
1	4020	0.335	0.00025
1	4020	0.335	0
1	4032	0.336	0.00075
1	4032	0.336	0.0005
1	4032	0.336	0.00025
1	4032	0.336	0
1	4044	0.337	0.00075
1	4044	0.337	0.0005
1	4044	0.337	0.00025
1	4044	0.337	0
1	4056	0.338	0.00075
1	4056	0.338	0.0005
1	4056	0.338	0.00025
1	4056	0.338	0
1	4068	0.339	0.00075
1	4068	0.339	0.0005
1	4068	0.339	0.00025
1	4068	0.339	0
1	4080	0.34	0.00075
1	4080	0.34	0.0005
1	4080	0.34	0.00025
1	4080	0.34	0
1	4092	0.341	0.00075
1	4092	0.341	0.0005
1	4092	0.341	0.00025
1	4092	0.341	0
1	4104	0.342	0.00075
1	4104	0.342	0.0005
1	4104	0.342	0.00025
1	4104	0.342	0
1	4116	0.343	0.00075
1	4116	0.343	0.0005
1	4116	0.343	0.00025
1	4116	0.343	0
1	4128	0.344	0.00075
1	4128	0.344	0.0005
1	4128	0.344	0.00025
1	4128	0.344	0
1	4140	0.345	0.00075
1	4140	0.345	0.0005
1	4140	0.345	0.00025
1	4140	0.345	0
1	4152	0.346	0.00075
1	4152	0.346	0.0005
1	4152	0.346	0.00025
1	4152	0.346	0
1	4164	0.347	0.00075
1	4164	0.347	0.0005
1	4164	0.347	0.00025
1	4164	0.347	0
1	4176	0.348	0.00075
1	4176	0.348	0.0005
1	4176	0.348	0.00025
1	4176	0.348	0
1	4188	0.349	0.00075
1	4188	0.349	0.0005
1	4188	0.349	0.00025
1	4188	0.349	0
1	4200	0.35	0.00075
1	4200	0.35	0.0005
1	4200	0.35	0.00025
1	4200	0.35	0
1	4212	0.351	0.00075
1	4212	0.351	0.0005
1	4212	0.351	0.00025
1	4212	0.351	0
1	4224	0.352	0.00075
1	4224	0.352	0.0005
1	4224	0.352	0.00025
1	4224	0.352	0
1	4236	0.353	0.00075
1	4236	0.353	0.0005
1	4236	0.353	0.00025
1	4236	0.353	0
1	4248	0.354	0.00075
1	4248	0.354	0.0005
1	4248	0.354	0.00025
1	4248	0.354	0
1	4260	0.355	0.00075
1	4260	0.355	0.0005
1	4260	0.355	0.00025
1	4260	0.355	0
1	4272	0.356	0.00075
1	4272	0.356	0.0005
1	4272	0.356	0.00025
1	4272	0.356	0
1	4284	0.357	0.00075
1	4284	0.357	0.0005
1	4284	0.357	0.00025
1	4284	0.357	0
1	4296	0.358	0.00075
1	4296	0.358	0.0005
1	4296	0.358	0.00025
1	4296	0.358	0
1	4308	0.359	0.00075
1	4308	0.359	0.0005
1	4308	0.359	0.00025
1	4308	0.359	0
1	4320	0.36	0.00075
1	4320	0.36	0.0005
1	4320	0.36	0.00025
1	4320	0.36	0
1	4332	0.361	0.00075
1	4332	0.361	0.0005
1	4332	0.361	0.00025
1	4332	0.361	0
1	4344	0.362	0.00075
1	4344	0.362	0.0005
1	4344	0.362	0.00025
1	4344	0.362	0
1	4356	0.363	0.00075
1	4356	0.363	0.0005
1	4356	0.363	0.00025
1	4356	0.363	0
1	4368	0.364	0.00075
1	4368	0.364	0.0005
1	4368	0.364	0.00025
1	4368	0.364	0
1	4380	0.365	0.00075
1	4380	0.365	0.0005
1	4380	0.365	0.00025
1	4380	0.365	0
1	4392	0.366	0.00075
1	4392	0.366	0.0005
1	4392	0.366	0.00025
1	4392	0.366	0
1	4404	0.367	0.00075
1	4404	0.367	0.0005
1	4404	0.367	0.00025
1	4404	0.367	0
1	4416	0.368	0.00075
1	4416	0.368	0.0005
1	4416	0.368	0.00025
1	4416	0.368	0
1	4428	0.369	0.00075
1	4428	0.369	0.0005
1	4428	0.369	0.00025
1	4428	0.369	0
1	4440	0.37	0.00075
1	4440	0.37	0.0005
1	4440	0.37	0.00025
1	4440	0.37	0
1	4452	0.371	0.00075
1	4452	0.371	0.0005
1	4452	0.371	0.00025
1	4452	0.371	0
1	4464	0.372	0.00075
1	4464	0.372	0.0005
1	4464	0.372	0.00025
1	4464	0.372	0
1	4476	0.373	0.00075
1	4476	0.373	0.0005
1	4476	0.373	0.00025
1	4476	0.373	0
1	4488	0.374	0.00075
1	4488	0.374	0.0005
1	4488	0.374	0.00025
1	4488	0.374	0
1	4500	0.375	0.00075
1	4500	0.375	0.0005
1	4500	0.375	0.00025
1	4500	0.375	0
1	4512	0.376	0.00075
1	4512	0.376	0.0005
1	4512	0.376	0.00025
1	4512	0.376	0
1	4524	0.377	0.00075
1	4524	0.377	0.0005
1	4524	0.377	0.00025
1	4524	0.377	0
1	4536	0.378	0.00075
1	4536	0.378	0.0005
1	4536	0.378	0.00025
1	4536	0.378	0
1	4548	0.379	0.00075
1	4548	0.379	0.0005
1	4548	0.379	0.00025
1	4548	0.379	0
1	4560	0.38	0.00075
1	4560	0.38	0.0005
1	4560	0.38	0.00025