version 3
run General-0-20221203-22:35:52-26270
attr configname General
attr datetime 20221203-22:35:52
attr datetimef 20221203-223552
attr experiment General
attr inifile omnetpp.ini
attr iterationvars ""
attr iterationvarsd ""
attr iterationvarsf ""
attr measurement ""
attr network OpportunisticCellularNetwork
attr processid 26270
attr repetition 0
attr replication #0
attr resultdir results
attr runnumber 0
attr seedset 0
config network OpportunisticCellularNetwork
config sim-time-limit 300s
config **.population 50
config **.antenna.population 5
config **.antenna.stage 0
config **.antenna.timeslot 1
config **.antenna.queueDimension 0
config **.cellular[*].typeCQI false
config **.cellular[*].uniform_r 15
config num-rngs 3
config **.cellular[*].rng-0 0
config **.source[999].rng-0 0
config "** source[*].rng-0" parentIndex()

vector 0 OpportunisticCellularNetwork.cellular[0] userThroughput:vector ETV
attr "" ""
attr recordingmode vector
attr source userThroughputSignal
vector 1 OpportunisticCellularNetwork.cellular[1] userThroughput:vector ETV
attr "" ""
attr recordingmode vector
attr source userThroughputSignal
vector 2 OpportunisticCellularNetwork.cellular[2] userThroughput:vector ETV
attr "" ""
attr recordingmode vector
attr source userThroughputSignal
vector 3 OpportunisticCellularNetwork.cellular[3] userThroughput:vector ETV
attr "" ""
attr recordingmode vector
attr source userThroughputSignal
vector 4 OpportunisticCellularNetwork.cellular[4] userThroughput:vector ETV
attr "" ""
attr recordingmode vector
attr source userThroughputSignal
vector 5 OpportunisticCellularNetwork.cellular[5] userThroughput:vector ETV
attr "" ""
attr recordingmode vector
attr source userThroughputSignal
vector 6 OpportunisticCellularNetwork.cellular[6] userThroughput:vector ETV
attr "" ""
attr recordingmode vector
attr source userThroughputSignal
vector 7 OpportunisticCellularNetwork.cellular[7] userThroughput:vector ETV
attr "" ""
attr recordingmode vector
attr source userThroughputSignal
vector 8 OpportunisticCellularNetwork.cellular[8] userThroughput:vector ETV
attr "" ""
attr recordingmode vector
attr source userThroughputSignal
vector 9 OpportunisticCellularNetwork.cellular[9] userThroughput:vector ETV
attr "" ""
attr recordingmode vector
attr source userThroughputSignal
vector 10 OpportunisticCellularNetwork.cellular[10] userThroughput:vector ETV
attr "" ""
attr recordingmode vector
attr source userThroughputSignal
vector 11 OpportunisticCellularNetwork.cellular[11] userThroughput:vector ETV
attr "" ""
attr recordingmode vector
attr source userThroughputSignal
vector 12 OpportunisticCellularNetwork.cellular[12] userThroughput:vector ETV
attr "" ""
attr recordingmode vector
attr source userThroughputSignal
vector 13 OpportunisticCellularNetwork.cellular[13] userThroughput:vector ETV
attr "" ""
attr recordingmode vector
attr source userThroughputSignal
vector 14 OpportunisticCellularNetwork.cellular[14] userThroughput:vector ETV
attr "" ""
attr recordingmode vector
attr source userThroughputSignal
vector 15 OpportunisticCellularNetwork.cellular[15] userThroughput:vector ETV
attr "" ""
attr recordingmode vector
attr source userThroughputSignal
vector 16 OpportunisticCellularNetwork.cellular[16] userThroughput:vector ETV
attr "" ""
attr recordingmode vector
attr source userThroughputSignal
vector 17 OpportunisticCellularNetwork.cellular[17] userThroughput:vector ETV
attr "" ""
attr recordingmode vector
attr source userThroughputSignal
vector 18 OpportunisticCellularNetwork.cellular[18] userThroughput:vector ETV
attr "" ""
attr recordingmode vector
attr source userThroughputSignal
vector 19 OpportunisticCellularNetwork.cellular[19] userThroughput:vector ETV
attr "" ""
attr recordingmode vector
attr source userThroughputSignal
vector 20 OpportunisticCellularNetwork.cellular[20] userThroughput:vector ETV
attr "" ""
attr recordingmode vector
attr source userThroughputSignal
vector 21 OpportunisticCellularNetwork.cellular[21] userThroughput:vector ETV
attr "" ""
attr recordingmode vector
attr source userThroughputSignal
vector 22 OpportunisticCellularNetwork.cellular[22] userThroughput:vector ETV
attr "" ""
attr recordingmode vector
attr source userThroughputSignal
vector 23 OpportunisticCellularNetwork.cellular[23] userThroughput:vector ETV
attr "" ""
attr recordingmode vector
attr source userThroughputSignal
vector 24 OpportunisticCellularNetwork.cellular[24] userThroughput:vector ETV
attr "" ""
attr recordingmode vector
attr source userThroughputSignal
vector 25 OpportunisticCellularNetwork.cellular[25] userThroughput:vector ETV
attr "" ""
attr recordingmode vector
attr source userThroughputSignal
vector 26 OpportunisticCellularNetwork.cellular[26] userThroughput:vector ETV
attr "" ""
attr recordingmode vector
attr source userThroughputSignal
vector 27 OpportunisticCellularNetwork.cellular[27] userThroughput:vector ETV
attr "" ""
attr recordingmode vector
attr source userThroughputSignal
vector 28 OpportunisticCellularNetwork.cellular[28] userThroughput:vector ETV
attr "" ""
attr recordingmode vector
attr source userThroughputSignal
vector 29 OpportunisticCellularNetwork.cellular[29] userThroughput:vector ETV
attr "" ""
attr recordingmode vector
attr source userThroughputSignal
vector 30 OpportunisticCellularNetwork.cellular[30] userThroughput:vector ETV
attr "" ""
attr recordingmode vector
attr source userThroughputSignal
vector 31 OpportunisticCellularNetwork.cellular[31] userThroughput:vector ETV
attr "" ""
attr recordingmode vector
attr source userThroughputSignal
vector 32 OpportunisticCellularNetwork.cellular[32] userThroughput:vector ETV
attr "" ""
attr recordingmode vector
attr source userThroughputSignal
vector 33 OpportunisticCellularNetwork.cellular[33] userThroughput:vector ETV
attr "" ""
attr recordingmode vector
attr source userThroughputSignal
vector 34 OpportunisticCellularNetwork.cellular[34] userThroughput:vector ETV
attr "" ""
attr recordingmode vector
attr source userThroughputSignal
vector 35 OpportunisticCellularNetwork.cellular[35] userThroughput:vector ETV
attr "" ""
attr recordingmode vector
attr source userThroughputSignal
vector 36 OpportunisticCellularNetwork.cellular[36] userThroughput:vector ETV
attr "" ""
attr recordingmode vector
attr source userThroughputSignal
vector 37 OpportunisticCellularNetwork.cellular[37] userThroughput:vector ETV
attr "" ""
attr recordingmode vector
attr source userThroughputSignal
vector 38 OpportunisticCellularNetwork.cellular[38] userThroughput:vector ETV
attr "" ""
attr recordingmode vector
attr source userThroughputSignal
vector 39 OpportunisticCellularNetwork.cellular[39] userThroughput:vector ETV
attr "" ""
attr recordingmode vector
attr source userThroughputSignal
vector 40 OpportunisticCellularNetwork.cellular[40] userThroughput:vector ETV
attr "" ""
attr recordingmode vector
attr source userThroughputSignal
vector 41 OpportunisticCellularNetwork.cellular[41] userThroughput:vector ETV
attr "" ""
attr recordingmode vector
attr source userThroughputSignal
vector 42 OpportunisticCellularNetwork.cellular[42] userThroughput:vector ETV
attr "" ""
attr recordingmode vector
attr source userThroughputSignal
vector 43 OpportunisticCellularNetwork.cellular[43] userThroughput:vector ETV
attr "" ""
attr recordingmode vector
attr source userThroughputSignal
vector 44 OpportunisticCellularNetwork.cellular[44] userThroughput:vector ETV
attr "" ""
attr recordingmode vector
attr source userThroughputSignal
vector 45 OpportunisticCellularNetwork.cellular[45] userThroughput:vector ETV
attr "" ""
attr recordingmode vector
attr source userThroughputSignal
vector 46 OpportunisticCellularNetwork.cellular[46] userThroughput:vector ETV
attr "" ""
attr recordingmode vector
attr source userThroughputSignal
vector 47 OpportunisticCellularNetwork.cellular[47] userThroughput:vector ETV
attr "" ""
attr recordingmode vector
attr source userThroughputSignal
vector 48 OpportunisticCellularNetwork.cellular[48] userThroughput:vector ETV
attr "" ""
attr recordingmode vector
attr source userThroughputSignal
vector 49 OpportunisticCellularNetwork.cellular[49] userThroughput:vector ETV
attr "" ""
attr recordingmode vector
attr source userThroughputSignal
vector 50 OpportunisticCellularNetwork.antenna throughput:vector ETV
attr "" ""
attr recordingmode vector
attr source throughputSignal
vector 51 OpportunisticCellularNetwork.antenna responseTime:vector ETV
attr "" ""
attr recordingmode vector
attr source responseTimeSignal
vector 52 OpportunisticCellularNetwork.cellular[44] userResponseTime:vector ETV
attr "" ""
attr recordingmode vector
attr source userResponseTimeSignal
vector 53 OpportunisticCellularNetwork.cellular[31] userResponseTime:vector ETV
attr "" ""
attr recordingmode vector
attr source userResponseTimeSignal
vector 54 OpportunisticCellularNetwork.cellular[21] userResponseTime:vector ETV
attr "" ""
attr recordingmode vector
attr source userResponseTimeSignal
vector 55 OpportunisticCellularNetwork.cellular[40] userResponseTime:vector ETV
attr "" ""
attr recordingmode vector
attr source userResponseTimeSignal
vector 56 OpportunisticCellularNetwork.cellular[9] userResponseTime:vector ETV
attr "" ""
attr recordingmode vector
attr source userResponseTimeSignal
vector 57 OpportunisticCellularNetwork.cellular[48] userResponseTime:vector ETV
attr "" ""
attr recordingmode vector
attr source userResponseTimeSignal
vector 58 OpportunisticCellularNetwork.cellular[47] userResponseTime:vector ETV
attr "" ""
attr recordingmode vector
attr source userResponseTimeSignal
vector 59 OpportunisticCellularNetwork.cellular[32] userResponseTime:vector ETV
attr "" ""
attr recordingmode vector
attr source userResponseTimeSignal
vector 60 OpportunisticCellularNetwork.cellular[34] userResponseTime:vector ETV
attr "" ""
attr recordingmode vector
attr source userResponseTimeSignal
vector 61 OpportunisticCellularNetwork.cellular[45] userResponseTime:vector ETV
attr "" ""
attr recordingmode vector
attr source userResponseTimeSignal
vector 62 OpportunisticCellularNetwork.cellular[1] userResponseTime:vector ETV
attr "" ""
attr recordingmode vector
attr source userResponseTimeSignal
vector 63 OpportunisticCellularNetwork.cellular[7] userResponseTime:vector ETV
attr "" ""
attr recordingmode vector
attr source userResponseTimeSignal
vector 64 OpportunisticCellularNetwork.cellular[2] userResponseTime:vector ETV
attr "" ""
attr recordingmode vector
attr source userResponseTimeSignal
vector 65 OpportunisticCellularNetwork.cellular[49] userResponseTime:vector ETV
attr "" ""
attr recordingmode vector
attr source userResponseTimeSignal
vector 66 OpportunisticCellularNetwork.cellular[43] userResponseTime:vector ETV
attr "" ""
attr recordingmode vector
attr source userResponseTimeSignal
vector 67 OpportunisticCellularNetwork.cellular[13] userResponseTime:vector ETV
attr "" ""
attr recordingmode vector
attr source userResponseTimeSignal
vector 68 OpportunisticCellularNetwork.cellular[11] userResponseTime:vector ETV
attr "" ""
attr recordingmode vector
attr source userResponseTimeSignal
vector 69 OpportunisticCellularNetwork.cellular[35] userResponseTime:vector ETV
attr "" ""
attr recordingmode vector
attr source userResponseTimeSignal
vector 70 OpportunisticCellularNetwork.cellular[18] userResponseTime:vector ETV
attr "" ""
attr recordingmode vector
attr source userResponseTimeSignal
vector 71 OpportunisticCellularNetwork.cellular[26] userResponseTime:vector ETV
attr "" ""
attr recordingmode vector
attr source userResponseTimeSignal
vector 72 OpportunisticCellularNetwork.cellular[24] userResponseTime:vector ETV
attr "" ""
attr recordingmode vector
attr source userResponseTimeSignal
vector 73 OpportunisticCellularNetwork.cellular[39] userResponseTime:vector ETV
attr "" ""
attr recordingmode vector
attr source userResponseTimeSignal
vector 74 OpportunisticCellularNetwork.cellular[8] userResponseTime:vector ETV
attr "" ""
attr recordingmode vector
attr source userResponseTimeSignal
vector 75 OpportunisticCellularNetwork.cellular[37] userResponseTime:vector ETV
attr "" ""
attr recordingmode vector
attr source userResponseTimeSignal
vector 76 OpportunisticCellularNetwork.cellular[14] userResponseTime:vector ETV
attr "" ""
attr recordingmode vector
attr source userResponseTimeSignal
vector 77 OpportunisticCellularNetwork.cellular[41] userResponseTime:vector ETV
attr "" ""
attr recordingmode vector
attr source userResponseTimeSignal
vector 78 OpportunisticCellularNetwork.cellular[10] userResponseTime:vector ETV
attr "" ""
attr recordingmode vector
attr source userResponseTimeSignal
vector 79 OpportunisticCellularNetwork.cellular[46] userResponseTime:vector ETV
attr "" ""
attr recordingmode vector
attr source userResponseTimeSignal
vector 80 OpportunisticCellularNetwork.cellular[5] userResponseTime:vector ETV
attr "" ""
attr recordingmode vector
attr source userResponseTimeSignal
vector 81 OpportunisticCellularNetwork.cellular[15] userResponseTime:vector ETV
attr "" ""
attr recordingmode vector
attr source userResponseTimeSignal
vector 82 OpportunisticCellularNetwork.cellular[20] userResponseTime:vector ETV
attr "" ""
attr recordingmode vector
attr source userResponseTimeSignal
vector 83 OpportunisticCellularNetwork.cellular[23] userResponseTime:vector ETV
attr "" ""
attr recordingmode vector
attr source userResponseTimeSignal
vector 84 OpportunisticCellularNetwork.cellular[12] userResponseTime:vector ETV
attr "" ""
attr recordingmode vector
attr source userResponseTimeSignal
vector 85 OpportunisticCellularNetwork.cellular[25] userResponseTime:vector ETV
attr "" ""
attr recordingmode vector
attr source userResponseTimeSignal
vector 86 OpportunisticCellularNetwork.cellular[30] userResponseTime:vector ETV
attr "" ""
attr recordingmode vector
attr source userResponseTimeSignal
vector 87 OpportunisticCellularNetwork.cellular[42] userResponseTime:vector ETV
attr "" ""
attr recordingmode vector
attr source userResponseTimeSignal
vector 88 OpportunisticCellularNetwork.cellular[22] userResponseTime:vector ETV
attr "" ""
attr recordingmode vector
attr source userResponseTimeSignal
vector 89 OpportunisticCellularNetwork.cellular[4] userResponseTime:vector ETV
attr "" ""
attr recordingmode vector
attr source userResponseTimeSignal
vector 90 OpportunisticCellularNetwork.cellular[16] userResponseTime:vector ETV
attr "" ""
attr recordingmode vector
attr source userResponseTimeSignal
vector 91 OpportunisticCellularNetwork.cellular[0] userResponseTime:vector ETV
attr "" ""
attr recordingmode vector
attr source userResponseTimeSignal
vector 92 OpportunisticCellularNetwork.cellular[28] userResponseTime:vector ETV
attr "" ""
attr recordingmode vector
attr source userResponseTimeSignal
vector 93 OpportunisticCellularNetwork.cellular[33] userResponseTime:vector ETV
attr "" ""
attr recordingmode vector
attr source userResponseTimeSignal
vector 94 OpportunisticCellularNetwork.cellular[29] userResponseTime:vector ETV
attr "" ""
attr recordingmode vector
attr source userResponseTimeSignal
vector 95 OpportunisticCellularNetwork.cellular[6] userResponseTime:vector ETV
attr "" ""
attr recordingmode vector
attr source userResponseTimeSignal
vector 96 OpportunisticCellularNetwork.cellular[3] userResponseTime:vector ETV
attr "" ""
attr recordingmode vector
attr source userResponseTimeSignal
vector 97 OpportunisticCellularNetwork.cellular[36] userResponseTime:vector ETV
attr "" ""
attr recordingmode vector
attr source userResponseTimeSignal
vector 98 OpportunisticCellularNetwork.cellular[38] userResponseTime:vector ETV
attr "" ""
attr recordingmode vector
attr source userResponseTimeSignal
vector 99 OpportunisticCellularNetwork.cellular[17] userResponseTime:vector ETV
attr "" ""
attr recordingmode vector
attr source userResponseTimeSignal
0	2	0	0
0	311	1	0
0	653	2	0
0	1003	3	0
0	1364	4	0
0	1763	5	0
0	2111	6	0
0	2404	7	0
0	2747	8	0
0	3099	9	0
0	3451	10	440
0	3784	11	151
0	4145	12	0
0	4508	13	69
0	4858	14	64
0	5206	15	0
0	5547	16	0
0	5903	17	0
0	6232	18	0
0	6596	19	0
0	6921	20	0
0	7270	21	0
0	7603	22	163
0	7972	23	56
0	8301	24	0
0	8652	25	0
0	8997	26	0
0	9370	27	0
0	9737	28	443
0	10084	29	184
0	10402	30	0
0	10765	31	0
0	11130	32	0
0	11507	33	0
0	11838	34	0
0	12170	35	0
0	12526	36	0
0	12882	37	0
0	13229	38	0
0	13565	39	0
0	13905	40	0
0	14258	41	0
0	14607	42	460
0	14968	43	0
0	15328	44	116
0	15659	45	0
0	16032	46	0
0	16380	47	0
0	16723	48	120
0	17051	49	71
0	17440	50	0
0	17771	51	225
0	18140	52	3
0	18512	53	75
0	18861	54	0
0	19182	55	0
0	19548	56	0
0	19902	57	0
0	20262	58	252
0	20639	59	0
0	20988	60	0
0	21321	61	0
0	21688	62	0
0	22046	63	0
0	22420	64	0
0	22759	65	0
0	23116	66	0
0	23426	67	0
0	23760	68	0
0	24124	69	0
0	24455	70	0
0	24775	71	0
0	25086	72	0
0	25431	73	0
0	25764	74	0
0	26104	75	0
0	26467	76	0
0	26794	77	0
0	27154	78	0
0	27529	79	0
0	27887	80	0
0	28244	81	0
0	28585	82	0
0	28952	83	0
0	29287	84	0
0	29670	85	0
0	30048	86	0
0	30405	87	0
0	30779	88	0
0	31138	89	0
0	31450	90	0
0	31792	91	0
0	32167	92	0
0	32516	93	0
0	32837	94	0
0	33207	95	0
0	33552	96	0
0	33905	97	0
0	34227	98	0
0	34563	99	0
0	34891	100	0
0	35224	101	0
0	35573	102	0
0	35915	103	0
0	36230	104	0
0	36547	105	0
0	36870	106	0
0	37227	107	0
0	37545	108	0
0	37906	109	0
0	38243	110	0
0	38558	111	0
0	38900	112	0
0	39275	113	0
0	39641	114	0
0	39965	115	0
0	40290	116	0
0	40628	117	0
0	41006	118	0
0	41388	119	0
0	41717	120	0
0	42086	121	0
0	42437	122	0
0	42759	123	0
0	43105	124	0
0	43456	125	0
0	43840	126	0
0	44211	127	0
0	44548	128	0
0	44876	129	0
0	45233	130	0
0	45560	131	0
0	45910	132	0
0	46264	133	0
0	46603	134	0
0	46928	135	0
0	47267	136	0
0	47584	137	0
0	47904	138	0
0	48265	139	0
0	48614	140	0
0	48967	141	0
0	49318	142	0
0	49663	143	0
0	50007	144	0
0	50365	145	0
0	50681	146	0
0	51015	147	0
0	51353	148	0
0	51687	149	0
0	52035	150	0
0	52358	151	0
0	52715	152	0
0	53071	153	0
0	53427	154	0
0	53750	155	0
0	54117	156	0
0	54454	157	0
0	54758	158	0
0	55083	159	0
0	55410	160	0
0	55730	161	0
0	56074	162	0
0	56415	163	0
0	56788	164	0
0	57143	165	0
0	57473	166	0
0	57811	167	0
0	58169	168	0
0	58515	169	0
0	58862	170	0
0	59168	171	0
0	59517	172	0
0	59867	173	0
0	60208	174	0
0	60560	175	0
0	60900	176	0
0	61243	177	0
0	61599	178	0
0	61932	179	0
0	62307	180	0
0	62625	181	0
0	62955	182	0
0	63322	183	0
0	63694	184	0
0	64054	185	0
0	64373	186	0
0	64694	187	0
0	65027	188	0
0	65378	189	0
0	65720	190	0
0	66106	191	0
0	66458	192	0
0	66825	193	0
0	67147	194	0
0	67533	195	0
0	67882	196	0
0	68215	197	0
0	68554	198	0
0	68900	199	0
0	69228	200	0
0	69527	201	0
0	69828	202	0
0	70160	203	0
0	70505	204	0
0	70847	205	0
0	71153	206	0
0	71496	207	0
0	71815	208	0
0	72185	209	0
0	72570	210	0
0	72910	211	0
0	73247	212	0
0	73534	213	0
0	73893	214	0
0	74219	215	0
0	74562	216	0
0	74933	217	0
0	75282	218	0
0	75630	219	0
0	75941	220	0
0	76281	221	0
0	76592	222	0
0	76931	223	0
0	77264	224	0
0	77604	225	0
0	77904	226	0
0	78246	227	0
0	78549	228	0
0	78906	229	0
0	79237	230	0
0	79580	231	0
0	79930	232	0
0	80280	233	0
0	80607	234	0
0	80943	235	0
0	81296	236	0
0	81612	237	0
0	81955	238	0
0	82318	239	0
0	82640	240	0
0	82971	241	0
0	83315	242	0
0	83646	243	0
0	83972	244	0
0	84306	245	0
0	84644	246	0
0	84951	247	0
0	85272	248	0
0	85628	249	0
0	85908	250	0
0	86262	251	0
0	86601	252	0
0	86954	253	0
0	87275	254	0
0	87616	255	0
0	87930	256	0
0	88278	257	0
0	88601	258	0
0	88934	259	0
0	89259	260	0
0	89602	261	0
0	89916	262	0
0	90207	263	0
0	90507	264	0
0	90848	265	0
0	91194	266	0
0	91524	267	0
0	91849	268	0
0	92157	269	0
0	92501	270	0
0	92849	271	0
0	93184	272	0
0	93484	273	0
0	93826	274	0
0	94132	275	0
0	94429	276	0
0	94729	277	0
0	95065	278	0
0	95405	279	0
0	95724	280	0
0	96052	281	0
0	96367	282	0
0	96656	283	0
0	96970	284	0
0	97312	285	0
0	97646	286	0
0	97981	287	0
0	98325	288	0
0	98674	289	0
0	99026	290	0
0	99360	291	0
0	99726	292	0
0	100050	293	0
0	100354	294	0
0	100673	295	0
0	101002	296	0
0	101328	297	0
0	101654	298	0
0	101958	299	0
0	102339	300	0
1	3	0	0
1	312	1	0
1	654	2	83
1	1004	3	0
1	1365	4	0
1	1764	5	0
1	2112	6	0
1	2405	7	0
1	2748	8	0
1	3100	9	0
1	3452	10	0
1	3785	11	0
1	4146	12	0
1	4509	13	0
1	4859	14	0
1	5207	15	0
1	5548	16	557
1	5904	17	0
1	6233	18	0
1	6597	19	0
1	6922	20	0
1	7271	21	0
1	7604	22	0
1	7973	23	0
1	8302	24	0
1	8653	25	0
1	8998	26	0
1	9371	27	0
1	9738	28	0
1	10085	29	0
1	10403	30	0
1	10766	31	0
1	11131	32	0
1	11508	33	0
1	11839	34	0
1	12171	35	1264
1	12527	36	0
1	12883	37	25
1	13230	38	0
1	13566	39	0
1	13906	40	0
1	14259	41	0
1	14608	42	0
1	14969	43	278
1	15329	44	112
1	15660	45	0
1	16033	46	0
1	16381	47	0
1	16724	48	0
1	17052	49	374
1	17441	50	0
1	17772	51	0
1	18141	52	0
1	18513	53	0
1	18862	54	0
1	19183	55	0
1	19549	56	371
1	19903	57	0
1	20263	58	0
1	20640	59	0
1	20989	60	0
1	21322	61	0
1	21689	62	0
1	22047	63	317
1	22421	64	0
1	22760	65	0
1	23117	66	0
1	23427	67	0
1	23761	68	398
1	24125	69	0
1	24456	70	0
1	24776	71	259
1	25087	72	0
1	25432	73	0
1	25765	74	0
1	26105	75	0
1	26468	76	0
1	26795	77	0
1	27155	78	448
1	27530	79	0
1	27888	80	8
1	28245	81	0
1	28586	82	0
1	28953	83	0
1	29288	84	0
1	29671	85	0
1	30049	86	0
1	30406	87	0
1	30780	88	0
1	31139	89	0
1	31451	90	0
1	31793	91	508
1	32168	92	0
1	32517	93	0
1	32838	94	0
1	33208	95	0
1	33553	96	0
1	33906	97	0
1	34228	98	0
1	34564	99	0
1	34892	100	0
1	35225	101	0
1	35574	102	0
1	35916	103	0
1	36231	104	0
1	36548	105	0
1	36871	106	0
1	37228	107	1003
1	37546	108	0
1	37907	109	0
1	38244	110	0
1	38559	111	145
1	38901	112	0
1	39276	113	114
1	39642	114	19
1	39966	115	67
1	40291	116	33
1	40629	117	0
1	41007	118	48
1	41389	119	0
1	41718	120	0
1	42087	121	25
1	42438	122	0
1	42760	123	124
1	43106	124	11
1	43457	125	92
1	43841	126	0
1	44212	127	0
1	44549	128	312
1	44877	129	0
1	45234	130	132
1	45561	131	66
1	45911	132	0
1	46265	133	64
1	46604	134	59
1	46929	135	103
1	47268	136	27
1	47585	137	0
1	47905	138	92
1	48266	139	0
1	48615	140	0
1	48968	141	199
1	49319	142	0
1	49664	143	146
1	50008	144	28
1	50366	145	0
1	50682	146	0
1	51016	147	0
1	51354	148	0
1	51688	149	0
1	52036	150	0
1	52359	151	240
1	52716	152	0
1	53072	153	0
1	53428	154	134
1	53751	155	0
1	54118	156	0
1	54455	157	0
1	54759	158	0
1	55084	159	347
1	55411	160	0
1	55731	161	0
1	56075	162	0
1	56416	163	271
1	56789	164	50
1	57144	165	0
1	57474	166	183
1	57812	167	0
1	58170	168	37
1	58516	169	0
1	58863	170	277
1	59169	171	0
1	59518	172	0
1	59868	173	0
1	60209	174	0
1	60561	175	199
1	60901	176	70
1	61244	177	0
1	61600	178	0
1	61933	179	187
1	62308	180	62
1	62626	181	0
1	62956	182	0
1	63323	183	0
1	63695	184	0
1	64055	185	0
1	64374	186	0
1	64695	187	0
1	65028	188	0
1	65379	189	0
1	65721	190	0
1	66107	191	0
1	66459	192	783
1	66826	193	60
1	67148	194	18
1	67534	195	17
1	67883	196	0
1	68216	197	0
1	68555	198	44
1	68901	199	46
1	69229	200	142
1	69528	201	27
1	69829	202	0
1	70161	203	0
1	70506	204	0
1	70848	205	83
1	71154	206	0
1	71497	207	0
1	71816	208	90
1	72186	209	0
1	72571	210	0
1	72911	211	0
1	73248	212	0
1	73535	213	3
1	73894	214	0
1	74220	215	87
1	74563	216	6
1	74934	217	0
1	75283	218	0
1	75631	219	0
1	75942	220	336
1	76282	221	0
1	76593	222	0
1	76932	223	0
1	77265	224	261
1	77605	225	56
1	77905	226	0
1	78247	227	95
1	78550	228	0
1	78907	229	146
1	79238	230	9
1	79581	231	0
1	79931	232	0
1	80281	233	0
1	80608	234	66
1	80944	235	0
1	81297	236	0
1	81613	237	0
1	81956	238	216
1	82319	239	73
1	82641	240	74
1	82972	241	0
1	83316	242	61
1	83647	243	8
1	83973	244	0
1	84307	245	0
1	84645	246	78
1	84952	247	37
1	85273	248	0
1	85629	249	40
1	85909	250	0
1	86263	251	0
1	86602	252	0
1	86955	253	0
1	87276	254	279
1	87617	255	0
1	87931	256	20
1	88279	257	83
1	88602	258	162
1	88935	259	0
1	89260	260	147
1	89603	261	63
1	89917	262	106
1	90208	263	100
1	90508	264	0
1	90849	265	24
1	91195	266	5
1	91525	267	0
1	91850	268	124
1	92158	269	29
1	92502	270	64
1	92850	271	42
1	93185	272	31
1	93485	273	0
1	93827	274	0
1	94133	275	0
1	94430	276	0
1	94730	277	0
1	95066	278	92
1	95406	279	0
1	95725	280	0
1	96053	281	0
1	96368	282	0
1	96657	283	0
1	96971	284	0
1	97313	285	220
1	97647	286	0
1	97982	287	0
1	98326	288	0
1	98675	289	336
1	99027	290	56
1	99361	291	66
1	99727	292	0
1	100051	293	54
1	100355	294	4
1	100674	295	48
1	101003	296	53
1	101329	297	21
1	101655	298	0
1	101959	299	0
1	102340	300	211
2	4	0	0
2	313	1	0
2	655	2	79
2	1005	3	71
2	1366	4	127
2	1765	5	0
2	2113	6	0
2	2406	7	0
2	2749	8	76
2	3101	9	0
2	3453	10	39
2	3786	11	0
2	4147	12	0
2	4510	13	0
2	4860	14	0
2	5208	15	0
2	5549	16	0
2	5905	17	0
2	6234	18	396
2	6598	19	0
2	6923	20	0
2	7272	21	248
2	7605	22	54
2	7974	23	60
2	8303	24	0
2	8654	25	0
2	8999	26	0
2	9372	27	0
2	9739	28	0
2	10086	29	0
2	10404	30	0
2	10767	31	0
2	11132	32	0
2	11509	33	0
2	11840	34	0
2	12172	35	0
2	12528	36	0
2	12884	37	0
2	13231	38	0
2	13567	39	0
2	13907	40	0
2	14260	41	0
2	14609	42	0
2	14970	43	0
2	15330	44	0
2	15661	45	0
2	16034	46	0
2	16382	47	0
2	16725	48	0
2	17053	49	0
2	17442	50	0
2	17773	51	0
2	18142	52	0
2	18514	53	0
2	18863	54	0
2	19184	55	0
2	19550	56	0
2	19904	57	0
2	20264	58	0
2	20641	59	0
2	20990	60	0
2	21323	61	0
2	21690	62	0
2	22048	63	0
2	22422	64	0
2	22761	65	0
2	23118	66	0
2	23428	67	0
2	23762	68	0
2	24126	69	0
2	24457	70	0
2	24777	71	0
2	25088	72	0
2	25433	73	0
2	25766	74	0
2	26106	75	0
2	26469	76	0
2	26796	77	0
2	27156	78	0
2	27531	79	0
2	27889	80	0
2	28246	81	0
2	28587	82	0
2	28954	83	0
2	29289	84	0
2	29672	85	0
2	30050	86	0
2	30407	87	0
2	30781	88	0
2	31140	89	0
2	31452	90	0
2	31794	91	0
2	32169	92	0
2	32518	93	0
2	32839	94	0
2	33209	95	0
2	33554	96	0
2	33907	97	0
2	34229	98	0
2	34565	99	0
2	34893	100	0
2	35226	101	0
2	35575	102	0
2	35917	103	0
2	36232	104	0
2	36549	105	0
2	36872	106	0
2	37229	107	0
2	37547	108	0
2	37908	109	0
2	38245	110	0
2	38560	111	0
2	38902	112	0
2	39277	113	0
2	39643	114	0
2	39967	115	0
2	40292	116	0
2	40630	117	0
2	41008	118	0
2	41390	119	0
2	41719	120	0
2	42088	121	0
2	42439	122	0
2	42761	123	0
2	43107	124	0
2	43458	125	0
2	43842	126	0
2	44213	127	0
2	44550	128	0
2	44878	129	0
2	45235	130	0
2	45562	131	0
2	45912	132	0
2	46266	133	0
2	46605	134	0
2	46930	135	0
2	47269	136	0
2	47586	137	0
2	47906	138	0
2	48267	139	0
2	48616	140	0
2	48969	141	0
2	49320	142	0
2	49665	143	0
2	50009	144	0
2	50367	145	0
2	50683	146	0
2	51017	147	0
2	51355	148	0
2	51689	149	0
2	52037	150	0
2	52360	151	0
2	52717	152	0
2	53073	153	0
2	53429	154	0
2	53752	155	0
2	54119	156	0
2	54456	157	0
2	54760	158	0
2	55085	159	0
2	55412	160	0
2	55732	161	0
2	56076	162	0
2	56417	163	0
2	56790	164	0
2	57145	165	0
2	57475	166	0
2	57813	167	0
2	58171	168	0
2	58517	169	0
2	58864	170	0
2	59170	171	0
2	59519	172	0
2	59869	173	0
2	60210	174	0
2	60562	175	0
2	60902	176	0
2	61245	177	0
2	61601	178	0
2	61934	179	0
2	62309	180	0
2	62627	181	0
2	62957	182	0
2	63324	183	0
2	63696	184	0
2	64056	185	0
2	64375	186	0
2	64696	187	0
2	65029	188	0
2	65380	189	0
2	65722	190	0
2	66108	191	0
2	66460	192	0
2	66827	193	0
2	67149	194	0
2	67535	195	0
2	67884	196	0
2	68217	197	0
2	68556	198	0
2	68902	199	0
2	69230	200	0
2	69529	201	0
2	69830	202	0
2	70162	203	0
2	70507	204	0
2	70849	205	0
2	71155	206	0
2	71498	207	0
2	71817	208	0
2	72187	209	0
2	72572	210	0
2	72912	211	0
2	73249	212	0
2	73536	213	0
2	73895	214	0
2	74221	215	0
2	74564	216	0
2	74935	217	0
2	75284	218	0
2	75632	219	0
2	75943	220	0
2	76283	221	0
2	76594	222	0
2	76933	223	0
2	77266	224	0
2	77606	225	0
2	77906	226	0
2	78248	227	0
2	78551	228	0
2	78908	229	0
2	79239	230	0
2	79582	231	0
2	79932	232	0
2	80282	233	0
2	80609	234	0
2	80945	235	0
2	81298	236	0
2	81614	237	0
2	81957	238	0
2	82320	239	0
2	82642	240	0
2	82973	241	0
2	83317	242	0
2	83648	243	0
2	83974	244	0
2	84308	245	0
2	84646	246	0
2	84953	247	0
2	85274	248	0
2	85630	249	0
2	85910	250	0
2	86264	251	0
2	86603	252	0
2	86956	253	0
2	87277	254	0
2	87618	255	0
2	87932	256	0
2	88280	257	0
2	88603	258	0
2	88936	259	0
2	89261	260	0
2	89604	261	0
2	89918	262	0
2	90209	263	0
2	90509	264	0
2	90850	265	0
2	91196	266	0
2	91526	267	0
2	91851	268	0
2	92159	269	0
2	92503	270	0
2	92851	271	0
2	93186	272	0
2	93486	273	0
2	93828	274	0
2	94134	275	0
2	94431	276	0
2	94731	277	0
2	95067	278	0
2	95407	279	0
2	95726	280	0
2	96054	281	0
2	96369	282	0
2	96658	283	0
2	96972	284	0
2	97314	285	0
2	97648	286	0
2	97983	287	0
2	98327	288	0
2	98676	289	0
2	99028	290	0
2	99362	291	0
2	99728	292	0
2	100052	293	0
2	100356	294	0
2	100675	295	0
2	101004	296	0
2	101330	297	0
2	101656	298	0
2	101960	299	0
2	102341	300	0
3	5	0	0
3	314	1	0
3	656	2	0
3	1006	3	0
3	1367	4	0
3	1766	5	0
3	2114	6	0
3	2407	7	0
3	2750	8	0
3	3102	9	0
3	3454	10	0
3	3787	11	0
3	4148	12	0
3	4511	13	0
3	4861	14	657
3	5209	15	38
3	5550	16	0
3	5906	17	0
3	6235	18	0
3	6599	19	431
3	6924	20	0
3	7273	21	0
3	7606	22	0
3	7975	23	0
3	8304	24	0
3	8655	25	0
3	9000	26	0
3	9373	27	0
3	9740	28	0
3	10087	29	0
3	10405	30	0
3	10768	31	0
3	11133	32	0
3	11510	33	0
3	11841	34	0
3	12173	35	0
3	12529	36	0
3	12885	37	0
3	13232	38	0
3	13568	39	0
3	13908	40	0
3	14261	41	0
3	14610	42	0
3	14971	43	0
3	15331	44	0
3	15662	45	0
3	16035	46	0
3	16383	47	0
3	16726	48	0
3	17054	49	0
3	17443	50	0
3	17774	51	0
3	18143	52	0
3	18515	53	0
3	18864	54	0
3	19185	55	0
3	19551	56	0
3	19905	57	0
3	20265	58	0
3	20642	59	0
3	20991	60	0
3	21324	61	0
3	21691	62	0
3	22049	63	0
3	22423	64	0
3	22762	65	0
3	23119	66	0
3	23429	67	0
3	23763	68	0
3	24127	69	0
3	24458	70	0
3	24778	71	0
3	25089	72	0
3	25434	73	0
3	25767	74	0
3	26107	75	0
3	26470	76	0
3	26797	77	0
3	27157	78	0
3	27532	79	0
3	27890	80	0
3	28247	81	0
3	28588	82	0
3	28955	83	0
3	29290	84	0
3	29673	85	0
3	30051	86	0
3	30408	87	0
3	30782	88	0
3	31141	89	0
3	31453	90	0
3	31795	91	0
3	32170	92	0
3	32519	93	0
3	32840	94	0
3	33210	95	0
3	33555	96	0
3	33908	97	0
3	34230	98	0
3	34566	99	0
3	34894	100	0
3	35227	101	0
3	35576	102	0
3	35918	103	0
3	36233	104	0
3	36550	105	0
3	36873	106	0
3	37230	107	0
3	37548	108	0
3	37909	109	0
3	38246	110	0
3	38561	111	0
3	38903	112	0
3	39278	113	0
3	39644	114	0
3	39968	115	0
3	40293	116	0
3	40631	117	0
3	41009	118	0
3	41391	119	0
3	41720	120	0
3	42089	121	0
3	42440	122	0
3	42762	123	0
3	43108	124	0
3	43459	125	0
3	43843	126	0
3	44214	127	0
3	44551	128	0
3	44879	129	0
3	45236	130	0
3	45563	131	0
3	45913	132	0
3	46267	133	0
3	46606	134	0
3	46931	135	0
3	47270	136	0
3	47587	137	0
3	47907	138	0